 PROCESS            3  OF           14  WORKING
 PROCESS            4  OF           14  WORKING
 PROCESS            5  OF           14  WORKING
 PROCESS            0  OF           14  WORKING
 PROCESS            1  OF           14  WORKING
 PROCESS            2  OF           14  WORKING
 PROCESS            6  OF           14  WORKING
 PROCESS            7  OF           14  WORKING
 PROCESS            8  OF           14  WORKING
 PROCESS            9  OF           14  WORKING
 PROCESS           10  OF           14  WORKING
 PROCESS           11  OF           14  WORKING
 PROCESS           12  OF           14  WORKING
 PROCESS           13  OF           14  WORKING

         
 *******************************************************************************
 *                                                                             *
 *                               CRYSTAL14                                     *
 *                      public : 1.0.2 - Feb 23rd, 2013                        *
 *                       HTTP://WWW.CRYSTAL.UNITO.IT                           *
 *                                                                             *
 *                              MAIN AUTHORS                                   *
 *                                                                             *
 *  R. DOVESI(1,11), V.R. SAUNDERS(2), C. ROETTI(1,11), R. ORLANDO(1,11),      *
 *  C.M. ZICOVICH-WILSON(1,3), F. PASCALE(4), B. CIVALLERI(1,11),              *
 *  K. DOLL(5), N.M. HARRISON(2,6), I. J. BUSH(7), Ph. D'ARCO(8),              *
 *  M. LLUNELL(9), M. CAUSA'(10), Y. NOEL(8)                                   *
 *                                                                             *
 *        CONTRIBUTIONS TO THE CURRENT RELEASE HAVE BEEN GIVEN BY              *
 *                                                                             *
 *  L. MASCHIO(1,11), S. CASASSA(1,11), A. ERBA(1,11), M. FERRABONE(1,11),     *
 *  M. DE LA PIERRE(1,11), M. FERRERO(1,11), V. LACIVITA(1,11),                *
 *  J. BAIMA(1,11), E. ALBANESE(1,11), M.F. PEINTINGER(12), R. BAST(13),       *
 *  M. RERAT(14), B. KIRTMAN(15), R. DEMICHELIS(1,16)                          *
 *                                                                             *
 * (1) THEORETICAL CHEMISTRY GROUP - UNIVERSITA' DI TORINO - TORINO (ITALY)    *
 *     http://www.crystal.unito.it                                             *
 * (2) COMPUTATIONAL SCIENCE & ENGINEERING DEPARTMENT - STFC DARESBURY (UK)    *
 *     http://www.stfc.ac.uk/CSE/randd/cmg/CRYSTAL/25806.aspx                  *
 * (3) UNIVERSIDAD AUTONOMA DEL ESTADO DE MORELOS - CUERNAVACA (MEXICO)        *
 * (4) UNIVERSITE' DE LORRAINE - NANCY (FRANCE)                                *
 * (5) UNIVERSITAET ULM - ULM (GERMANY); (6) IMPERIAL COLLEGE - LONDON (UK)    *
 * (7) NAG - OXFORD (UK); (8) UPMC - SORBONNE UNIVERSITES - PARIS (FRANCE)     *
 * (9) UNIVERSIDAD DE BARCELONA - BARCELONA (SPAIN)                            *
 *(10) UNIVERSITA' DI NAPOLI "FEDERICO II" - NAPOLI (ITALY)                    *
 *(11) NIS - NANOSTRUCTURED INTERFACES AND SURFACES - TORINO (ITALY)           *
 *(12) MPI FUER CHEMISCHE ENERGIEKONVERSION - MUELHEIM AN DER RUHR (GERMANY)   *
 *(13) UNIVERSITY OF STOCKHOLM - STOCKHOLM (SWEDEN)                            *
 *(14) UNIVERSITE' DE PAU ET DES PAYS DE L'ADOUR - PAU (FRANCE)                *
 *(15) UNIVERSITY OF CALIFORNIA SANTA BARBARA - SANTA BARBARA (USA)            *
 *(16) CURTIN UNIVERSITY - PERTH (AUSTRALIA)                                   *
 *                                                                             *
 ********************************************************************************
 EEEEEEEEEE STARTING  DATE 01 12 2017 TIME 16:01:03.2
 black p                                                                         

 SLAB CALCULATION
 SYSTEM AND LATTICE                   :  OBLIQUE     
 TWO-SIDED PLANE GROUP N.  1          :  P 1             
 CORRESPONDING SPACE GROUP N.   1

 LATTICE PARAMETERS  (ANGSTROMS AND DEGREES) - CONVENTIONAL CELL
           A              B            GAMMA
        3.27000        4.36000       90.00000


 NUMBER OF IRREDUCIBLE ATOMS IN THE CONVENTIONAL CELL:    8

 INPUT COORDINATES

 ATOM AT. N.              COORDINATES
   1  15     0.000000000000E+00 -4.213700000000E-01  3.700000000000E+00
   2  15     5.000000000000E-01 -7.863000000000E-02  3.700000000000E+00
   3  15     5.000000000000E-01  7.863000000000E-02  1.550000000000E+00
   4  15     0.000000000000E+00  4.213700000000E-01  1.550000000000E+00
   5  15     2.500000000000E-01 -4.213700000000E-01 -1.550000000000E+00
   6  15    -2.500000000000E-01 -7.863000000000E-02 -1.550000000000E+00
   7  15    -2.500000000000E-01  7.863000000000E-02 -3.700000000000E+00
   8  15     2.500000000000E-01  4.213700000000E-01 -3.700000000000E+00

 *******************************************************************************

 << INFORMATION >>: FROM NOW ON, ALL COORDINATES REFER TO THE PRIMITIVE CELL

 *******************************************************************************

 LATTICE PARAMETERS  (ANGSTROMS AND DEGREES) - PRIMITIVE CELL
       A          B          C        ALPHA      BETA     GAMMA        VOLUME
    3.27000    4.36000  500.00000    90.00000  90.00000  90.00000     14.257200

 COORDINATES OF THE EQUIVALENT ATOMS 
 (X AND Y IN FRACTIONARY UNITS, Z IN ANGSTROMS)

 N. ATOM EQUIV AT. N.          X                  Y                  Z

   1   1   1   15 P     0.00000000000E+00 -4.21370000000E-01  3.70000000000E+00

   2   2   1   15 P    -5.00000000000E-01 -7.86300000000E-02  3.70000000000E+00

   3   3   1   15 P    -5.00000000000E-01  7.86300000000E-02  1.55000000000E+00

   4   4   1   15 P     0.00000000000E+00  4.21370000000E-01  1.55000000000E+00

   5   5   1   15 P     2.50000000000E-01 -4.21370000000E-01 -1.55000000000E+00

   6   6   1   15 P    -2.50000000000E-01 -7.86300000000E-02 -1.55000000000E+00

   7   7   1   15 P    -2.50000000000E-01  7.86300000000E-02 -3.70000000000E+00

   8   8   1   15 P     2.50000000000E-01  4.21370000000E-01 -3.70000000000E+00

 NUMBER OF SYMMETRY OPERATORS         :    1
 *******************************************************************************
 * GEOMETRY EDITING - INPUT COORDINATES ARE GIVEN IN ANGSTROM         
 *******************************************************************************
 INFORMATION **** NEW DEFAULT **** FINALRUN 4 FOR GEOMETRY OPTIMIZATIONS
 INFORMATION **** NEW DEFAULT **** OPTGEOM OPTIMIZES BOTH ATOMIC COORDINATES AND CELL PARAMETERS
 INFORMATION **** NEW DEFAULT **** TOL. ON ATOMIC DISP TO REDEFINE REF. GEOMETRY: 0.8 Angs
 INFORMATION **** NEW DEFAULT **** N POINTS TO REDEFINE REF. GEOMETRY: N OF OPT DEGS OF FREEDOM
 INFORMATION **** NEW DEFAULT **** TOL. ON ENERGY TO REDEFINE REF. GEOMETRY: 10**-3*(5*N. ATOMS)

 *******************************************************************************
 * PARTIAL OPTIMIZATION - FRAGMENT OF    6 ATOMS -  INPUT LIST :

   1( 15)   2( 15)   4( 15)   6( 15)   7( 15)   8( 15)

 SYMMETRY MAY BE BROKEN


 FRAGMENT - OPTIMIZATION OF A FRAGMENT OF   6 ATOMS - INPUT DATA:
   1(Z= 15)    2(Z= 15)    4(Z= 15)    6(Z= 15)    7(Z= 15)    8(Z= 15) 

 IMPORTANT INFORMATION:
 THE COORDINATE SYSTEM ADOPTED IN THE OPTIMIZATION IS NOT IN
 GENERAL HOMOGENEOUS UNITS. FOR THIS REASON THE GRADIENT AND 
 HESSIAN MATRIX IN TERMS OF THIS SYSTEM ARE GIVEN WITHOUT
 UNITS. FOR MORE DETAILS SEE THE MANUAL.

 *******************************************************************************
 COMBINED CELL/ATOM OPTIMIZATION CONTROL

 INITIAL TRUST RADIUS         0.50000 MAXIMUM TRUST RADIUS               4.00000
 MAXIMUM GRADIENT COMPONENT   0.00045 MAXIMUM DISPLACEMENT COMPONENT     0.00180
 R.M.S. OF GRADIENT COMPONENT 0.00030 R.M.S. OF DISPLACEMENT COMPONENTS  0.00120
 THRESHOLD ON ENERGY CHANGE 0.100E-06 EXTRAPOLATING POLYNOMIAL ORDER           2
 MAXIMUM ALLOWED NUMBER OF STEPS   -1 SORTING OF ENERGY POINTS:               NO
 ANALYTICAL  GRADIENT                 HESSIAN UPDATING                      BFGS
 STEP SIZE NUMERICAL GRADIENT 0.00100
 INITIAL HESSIAN MATRIX: SCHLEGEL MODEL 2
 *******************************************************************************


 GCALCO - MAX INDICES DIRECT LATTICE VECTOR    96    72     0
 NO.OF VECTORS CREATED 6999 STARS 1368 RMAX   336.59955 BOHR

 GEOMETRY FOR WAVE FUNCTION - DIMENSIONALITY OF THE SYSTEM    2
 (NON PERIODIC DIRECTION: LATTICE PARAMETER FORMALLY SET TO 500)
 *******************************************************************************
 LATTICE PARAMETERS (ANGSTROMS AND DEGREES) - BOHR = 0.5291772083 ANGSTROM
 PRIMITIVE CELL
         A              B              C           ALPHA      BETA       GAMMA 
     3.27000000     4.36000000   500.00000000    90.000000  90.000000  90.000000
 *******************************************************************************
 ATOMS IN THE ASYMMETRIC UNIT    8 - ATOMS IN THE UNIT CELL:    8
     ATOM                 X/A                 Y/B             Z(ANGSTROM)
 *******************************************************************************
      1 T  15 P     6.928429903433E-17 -4.213700000000E-01  3.700000000000E+00
      2 T  15 P    -5.000000000000E-01 -7.863000000000E-02  3.700000000000E+00
      3 T  15 P    -5.000000000000E-01  7.863000000000E-02  1.550000000000E+00
      4 T  15 P     2.902450364952E-17  4.213700000000E-01  1.550000000000E+00
      5 T  15 P     2.500000000000E-01 -4.213700000000E-01 -1.550000000000E+00
      6 T  15 P    -2.500000000000E-01 -7.863000000000E-02 -1.550000000000E+00
      7 T  15 P    -2.500000000000E-01  7.863000000000E-02 -3.700000000000E+00
      8 T  15 P     2.500000000000E-01  4.213700000000E-01 -3.700000000000E+00

 T = ATOM BELONGING TO THE ASYMMETRIC UNIT

 ****    1 SYMMOPS - TRANSLATORS IN FRACTIONAL UNITS
 **** MATRICES AND TRANSLATORS IN THE CRYSTALLOGRAPHIC REFERENCE FRAME
   V INV                    ROTATION MATRICES                   TRANSLATORS
   1   1  1.00  0.00  0.00  0.00  1.00  0.00  0.00  0.00  1.00  0.00  0.00  0.00

 DIRECT LATTICE VECTORS CARTESIAN COMPONENTS (ANGSTROM)
          X                    Y                    Z
   0.327000000000E+01   0.200229751661E-15   0.000000000000E+00
   0.000000000000E+00   0.436000000000E+01   0.000000000000E+00
   0.000000000000E+00   0.000000000000E+00   0.500000000000E+03


 CARTESIAN COORDINATES - PRIMITIVE CELL
 *******************************************************************************
 *      ATOM          X(ANGSTROM)         Y(ANGSTROM)         Z(ANGSTROM)
 *******************************************************************************
    1    15 P     2.265596578423E-16 -1.837173200000E+00  3.700000000000E+00
    2    15 P     1.635000000000E+00 -3.428268000000E-01  3.700000000000E+00
    3    15 P     1.635000000000E+00  3.428268000000E-01  1.550000000000E+00
    4    15 P     9.491012693392E-17  1.837173200000E+00  1.550000000000E+00
    5    15 P     8.175000000000E-01 -1.837173200000E+00 -1.550000000000E+00
    6    15 P    -8.175000000000E-01 -3.428268000000E-01 -1.550000000000E+00
    7    15 P    -8.175000000000E-01  3.428268000000E-01 -3.700000000000E+00
    8    15 P     8.175000000000E-01  1.837173200000E+00 -3.700000000000E+00

 *******************************************************************************
 LOCAL ATOMIC FUNCTIONS BASIS SET
 *******************************************************************************
   ATOM   X(AU)   Y(AU)   Z(AU)  N. TYPE  EXPONENT  S COEF   P COEF   D/F/G COEF
 *******************************************************************************
   1 P    0.000  -3.472   6.992
                                  1 S  
                                         5.243E+04 5.521E-04 0.000E+00 0.000E+00
                                         7.863E+03 4.268E-03 0.000E+00 0.000E+00
                                         1.790E+03 2.193E-02 0.000E+00 0.000E+00
                                         5.063E+02 8.567E-02 0.000E+00 0.000E+00
                                         1.646E+02 2.484E-01 0.000E+00 0.000E+00
                                         5.839E+01 4.634E-01 0.000E+00 0.000E+00
                                         2.164E+01 3.535E-01 0.000E+00 0.000E+00
                                  2 S  
                                         9.901E+01 2.190E-02 0.000E+00 0.000E+00
                                         3.055E+01 9.565E-02 0.000E+00 0.000E+00
                                         5.454E+00-2.945E-01 0.000E+00 0.000E+00
                                  3 S  
                                         2.648E+00 1.329E+00 0.000E+00 0.000E+00
                                         1.274E+00 6.611E-01 0.000E+00 0.000E+00
                           4-     7 SP 
                                         3.500E-01 1.000E+00 1.000E+00 0.000E+00
                           8-    11 SP 
                                         1.300E-01 1.000E+00 1.000E+00 0.000E+00
                          12-    14 P  
                                         4.723E+02 0.000E+00 2.571E-03 0.000E+00
                                         1.116E+02 0.000E+00 2.025E-02 0.000E+00
                                         3.545E+01 0.000E+00 9.158E-02 0.000E+00
                                         1.299E+01 0.000E+00 2.575E-01 0.000E+00
                                         5.049E+00 0.000E+00 4.286E-01 0.000E+00
                                         1.993E+00 0.000E+00 3.436E-01 0.000E+00
                          15-    17 P  
                                         6.964E-01 0.000E+00 1.000E+00 0.000E+00
                          18-    22 D  
                                         3.120E+00 0.000E+00 0.000E+00 2.000E-01
                                         6.480E-01 0.000E+00 0.000E+00 1.000E+00
                          23-    27 D  
                                         2.180E-01 0.000E+00 0.000E+00 1.000E+00
                          28-    34 F  
                                         4.520E-01 0.000E+00 0.000E+00 1.000E+00
   2 P    3.090  -0.648   6.992
   3 P    3.090   0.648   2.929
   4 P    0.000   3.472   2.929
   5 P    1.545  -3.472  -2.929
   6 P   -1.545  -0.648  -2.929
   7 P   -1.545   0.648  -6.992
   8 P    1.545   3.472  -6.992
 INFORMATION **** SET_MPP **** PCRYSTAL CALCULATION
 INFORMATION **** READM2 **** NEW DEFAULT: FOCK/KS MATRIX MIXING SET TO 30 %
 INFORMATION **** READM2 **** NEW DEFAULT: FULL DIRECT SCF MODE
 INFORMATION **** READM2 **** NEW DEFAULT: COULOMB BIPOLAR BUFFER SET TO 32 Mb
 INFORMATION **** READM2 **** NEW DEFAULT: EXCHANGE BIPOLAR BUFFER SET TO 32 Mb

 *******************************************************************************
 NEW DEFAULT: DFT INTEGRATION GRID INCREASED TO XLGRID
 NEW DEFAULT: LEVEL SHIFTER 6 0
 IF THE SYSTEM IS A METAL USE KEYWORD NOSHIFT
 *******************************************************************************

 INFORMATION **** GRIMME **** GRIMME DISPERSION CORRECTION FOR ENER AND GRAD

 GRIMME DISPERSION CORRECTION PARAMETERS

 C6 COEFFICIENTS (KJ/MOL) AND VDW RADII (ANG)

                            ELEMENT  C6 COEF  RADIUS
                              P      7.840     1.705
 INFORMATION **** GUESSP **** SCF GUESS FROM A PREVIOUS RUN DENSITY MATRIX
 INFORMATION **** TOLINTEG **** COULOMB AND EXCHANGE SERIES TOLERANCES MODIFIED
 INFORMATION **** MAXCYCLE **** MAX NUMBER OF SCF CYCLES SET TO          60
 INFORMATION **** READM2 **** LEVEL SHIFTING DISABLED BY ANDERSON
 INFORMATION **** EXCHSIZE **** EXCHANGE BIPOLAR BUFFER SIZE SET TO    30000000
 INFORMATION **** BIPOSIZE **** COULOMB BIPOLAR BUFFER SET TO    30000000
 *******************************************************************************
 N. OF ATOMS PER CELL         8  COULOMB OVERLAP TOL         (T1) 10**   -8
 NUMBER OF SHELLS            80  COULOMB PENETRATION TOL     (T2) 10**   -8
 NUMBER OF AO               272  EXCHANGE OVERLAP TOL        (T3) 10**   -8
 N. OF ELECTRONS PER CELL   120  EXCHANGE PSEUDO OVP (F(G))  (T4) 10**  -20
 CORE ELECTRONS PER CELL     80  EXCHANGE PSEUDO OVP (P(G))  (T5) 10**  -50
 N. OF SYMMETRY OPERATORS     1  POLE ORDER IN MONO ZONE                  4
 *******************************************************************************
 TYPE OF CALCULATION :  RESTRICTED CLOSED SHELL
 KOHN-SHAM HAMILTONIAN

 (EXCHANGE)[CORRELATION] FUNCTIONAL:(PERDEW-BURKE-ERNZERHOF)[PERDEW-BURKE-ERNZERHOF]


 HYBRID EXCHANGE - PERCENTAGE OF FOCK EXCHANGE    25.0000

 CAPPA:IS1  8;IS2  8;IS3  1; K PTS MONK NET  34; SYMMOPS:K SPACE   2;G SPACE   1

 *******************************************************************************
 MAX NUMBER OF SCF CYCLES      60  CONVERGENCE ON DELTAP        10**-16
 WEIGHT OF F(I) IN F(I+1)      80% CONVERGENCE ON ENERGY        10**- 7
 SHRINK. FACT.(MONKH.)    8  8  1  NUMBER OF K POINTS IN THE IBZ     34
 SHRINKING FACTOR(GILAT NET)    8  NUMBER OF K POINTS(GILAT NET)     34
 *******************************************************************************
 *** K POINTS COORDINATES (OBLIQUE COORDINATES IN UNITS OF IS =  8)
   1-R(  0  0  0)   2-C(  1  0  0)   3-C(  2  0  0)   4-C(  3  0  0)
   5-R(  4  0  0)   6-C(  0  1  0)   7-C(  1  1  0)   8-C(  2  1  0)
   9-C(  3  1  0)  10-C(  4  1  0)  11-C(  5  1  0)  12-C(  6  1  0)
  13-C(  7  1  0)  14-C(  0  2  0)  15-C(  1  2  0)  16-C(  2  2  0)
  17-C(  3  2  0)  18-C(  4  2  0)  19-C(  5  2  0)  20-C(  6  2  0)
  21-C(  7  2  0)  22-C(  0  3  0)  23-C(  1  3  0)  24-C(  2  3  0)
  25-C(  3  3  0)  26-C(  4  3  0)  27-C(  5  3  0)  28-C(  6  3  0)
  29-C(  7  3  0)  30-R(  0  4  0)  31-C(  1  4  0)  32-C(  2  4  0)
  33-C(  3  4  0)  34-R(  4  4  0)

 DIRECT LATTICE VECTORS COMPON. (A.U.)     RECIP. LATTICE VECTORS COMPON. (A.U.) 
        X            Y            Z              X            Y            Z
    6.1794045    0.0000000    0.0000000      1.0167946    0.0000000    0.0000000
    0.0000000    8.2392059    0.0000000     -0.0000000    0.7625960    0.0000000
    0.0000000    0.0000000  944.8630670      0.0000000    0.0000000    0.0066498

 DISK SPACE FOR EIGENVECTORS (FTN 10)     4734976 REALS

 SYMMETRY ADAPTION OF THE BLOCH FUNCTIONS DISABLED
 TTTTTTTTTTTTTTTTTTTTTTTTTTTTTT gordsh1     TELAPSE        0.02 TCPU        0.01

 MATRIX SIZE: P(G) 2678160, F(G)  465478, P(G) IRR 1364952, F(G) IRR  473470
 MAX G-VECTOR INDEX FOR 1- AND 2-ELECTRON INTEGRALS 141

 TTTTTTTTTTTTTTTTTTTTTTTTTTTTTT INPUT       TELAPSE        0.02 TCPU        0.01

 NEIGHBORS OF THE NON-EQUIVALENT ATOMS

 N = NUMBER OF NEIGHBORS AT DISTANCE R
    ATOM  N     R/ANG      R/AU   NEIGHBORS (ATOM LABELS AND CELL INDICES)
   1 P    2     2.2150     4.1858    2 P    0 0 0    2 P   -1 0 0
   1 P    1     2.2567     4.2645    4 P    0-1 0
   1 P    2     3.2700     6.1794    1 P   -1 0 0    1 P    1 0 0
   1 P    2     3.2993     6.2347    2 P    0-1 0    2 P   -1-1 0
   1 P    4     3.4710     6.5593    3 P    0 0 0    3 P   -1 0 0    3 P    0-1 0
                                     3 P   -1-1 0
   1 P    2     3.9731     7.5081    4 P   -1-1 0    4 P    1-1 0

   2 P    2     2.2150     4.1858    1 P    0 0 0    1 P    1 0 0
   2 P    1     2.2567     4.2645    3 P    0 0 0
   2 P    2     3.2700     6.1794    2 P   -1 0 0    2 P    1 0 0
   2 P    2     3.2993     6.2347    1 P    0 1 0    1 P    1 1 0
   2 P    4     3.4710     6.5593    4 P    0 0 0    4 P    1 0 0    4 P    0-1 0
                                     4 P    1-1 0
   2 P    2     3.9731     7.5081    3 P    1 0 0    3 P   -1 0 0

   3 P    2     2.2150     4.1858    4 P    0 0 0    4 P    1 0 0
   3 P    1     2.2567     4.2645    2 P    0 0 0
   3 P    2     3.2700     6.1794    3 P   -1 0 0    3 P    1 0 0
   3 P    1     3.2785     6.1954    6 P    1 0 0
   3 P    2     3.2993     6.2347    4 P    0-1 0    4 P    1-1 0
   3 P    4     3.4710     6.5593    1 P    0 0 0    1 P    1 0 0    1 P    0 1 0
                                     1 P    1 1 0

   4 P    2     2.2150     4.1858    3 P    0 0 0    3 P   -1 0 0
   4 P    1     2.2567     4.2645    1 P    0 1 0
   4 P    2     3.2700     6.1794    4 P   -1 0 0    4 P    1 0 0
   4 P    1     3.2785     6.1954    5 P    0 1 0
   4 P    2     3.2993     6.2347    3 P    0 1 0    3 P   -1 1 0
   4 P    4     3.4710     6.5593    2 P    0 0 0    2 P   -1 0 0    2 P    0 1 0
                                     2 P   -1 1 0

   5 P    2     2.2150     4.1858    6 P    0 0 0    6 P    1 0 0
   5 P    1     2.2567     4.2645    8 P    0-1 0
   5 P    2     3.2700     6.1794    5 P   -1 0 0    5 P    1 0 0
   5 P    1     3.2785     6.1954    4 P    0-1 0
   5 P    2     3.2993     6.2347    6 P    0-1 0    6 P    1-1 0
   5 P    4     3.4710     6.5593    7 P    0 0 0    7 P    1 0 0    7 P    0-1 0
                                     7 P    1-1 0

   6 P    2     2.2150     4.1858    5 P    0 0 0    5 P   -1 0 0
   6 P    1     2.2567     4.2645    7 P    0 0 0
   6 P    2     3.2700     6.1794    6 P   -1 0 0    6 P    1 0 0
   6 P    1     3.2785     6.1954    3 P   -1 0 0
   6 P    2     3.2993     6.2347    5 P    0 1 0    5 P   -1 1 0
   6 P    4     3.4710     6.5593    8 P    0 0 0    8 P   -1 0 0    8 P    0-1 0
                                     8 P   -1-1 0

   7 P    2     2.2150     4.1858    8 P    0 0 0    8 P   -1 0 0
   7 P    1     2.2567     4.2645    6 P    0 0 0
   7 P    2     3.2700     6.1794    7 P   -1 0 0    7 P    1 0 0
   7 P    2     3.2993     6.2347    8 P    0-1 0    8 P   -1-1 0
   7 P    4     3.4710     6.5593    5 P    0 0 0    5 P   -1 0 0    5 P    0 1 0
                                     5 P   -1 1 0
   7 P    2     3.9731     7.5081    6 P   -1 0 0    6 P    1 0 0

   8 P    2     2.2150     4.1858    7 P    0 0 0    7 P    1 0 0
   8 P    1     2.2567     4.2645    5 P    0 1 0
   8 P    2     3.2700     6.1794    8 P   -1 0 0    8 P    1 0 0
   8 P    2     3.2993     6.2347    7 P    0 1 0    7 P    1 1 0
   8 P    4     3.4710     6.5593    6 P    0 0 0    6 P    1 0 0    6 P    0 1 0
                                     6 P    1 1 0
   8 P    2     3.9731     7.5081    5 P    1 1 0    5 P   -1 1 0


 SYMMETRY ALLOWED ELASTIC DISTORTION 1
  0.7071068  0.0000000
  0.0000000  0.7071068

 SYMMETRY ALLOWED ELASTIC DISTORTION 2
  0.7071068  0.0000000
  0.0000000 -0.7071068

 SYMMETRY ALLOWED ELASTIC DISTORTION 3
  0.0000000  0.7071068
  0.7071068  0.0000000

 SYMMETRY ALLOWED INTERNAL DEGREE(S) OF FREEDOM:  18
 TTTTTTTTTTTTTTTTTTTTTTTTTTTTTT SYMM        TELAPSE        0.02 TCPU        0.01
 TTTTTTTTTTTTTTTTTTTTTTTTTTTTTT INT_SCREEN  TELAPSE        0.02 TCPU        0.01

 *******************************************************************************
 *                             OPTIMIZATION STARTS                             *
 *******************************************************************************
 RECLASIFICATION OF INDICES FOR INTEGRAL CALC ACCORDING TO DIFFERENT CRITERIA:
           FIXDELTE                  FIXDELTX              FIXDELTN
          0.10000000               0.80000000                 21
 DEFAULT MAX NUM OF POINTS  100
 *******************************************************************************

 *******************************************************************************
 COORDINATE AND CELL OPTIMIZATION - POINT    1
 INFORMATION **** EXCBUF **** EXCH. BIPO BUFFER: WORDS USED =     2723508

 DFT PARAMETERS

     ATOM       ELECTRONS   NET CHARGE   R(ANGSTROM)
   1  15  P      15.0000      0.0000     1.10000000

 SIZE OF GRID=     233460
 TTTTTTTTTTTTTTTTTTTTTTTTTTTTTT MAKE_GRID2  TELAPSE        0.97 TCPU        0.97
 BECKE WEIGHT FUNCTION
 RADSAFE =     2.00
 TOLERANCES - DENSITY:10**- 6; POTENTIAL:10**- 9; GRID WGT:10**-14

 RADIAL INTEGRATION  - INTERVALS (POINTS,UPPER LIMIT):            1( 75,  4.0*R)

 ANGULAR INTEGRATION - INTERVALS (ACCURACY LEVEL [N. POINTS] UPPER LIMIT):
  1(  4[  86]   0.2)  2(  8[ 194]   0.5)  3( 12[ 350]   0.9)  4( 16[ 974]   3.5)
  5( 12[ 350]9999.0)

 *******************************************************************************
 black p                                                                         
 CRYSTAL - SCF - TYPE OF CALCULATION :  RESTRICTED CLOSED SHELL
 *******************************************************************************

 CAPPA:IS1  8;IS2  8;IS3  1; K PTS MONK NET  34; SYMMOPS:K SPACE   2;G SPACE   1

 TTTTTTTTTTTTTTTTTTTTTTTTTTTTTT SDIK        TELAPSE        1.06 TCPU        1.06

 INFORMATION FROM INTEGRAL EVALUATION

 RESTART FROM A PREVIOUS DENSITY MATRIX - DEP ACTIVE
 NUMBER OF COUPLE SETS (NEW, OLD, FOUND):    3026    3024    3024
 NUMBER OF IRREDUCIBLE G VECTORS        :   89464   86846   85531
 CHARGE NORMALIZATION FACTOR   1.00033886
 TOTAL ATOMIC CHARGES:
  14.9883747  14.9909864  15.0072372  15.0133914  15.0073119  15.0133445
  14.9884345  14.9909196
 TTTTTTTTTTTTTTTTTTTTTTTTTTTTTT MOQGAD      TELAPSE        1.13 TCPU        1.12
 TTTTTTTTTTTTTTTTTTTTTTTTTTTTTT SHELLXN     TELAPSE      209.32 TCPU      209.31
 TTTTTTTTTTTTTTTTTTTTTTTTTTTTTT MONMO3      TELAPSE      243.58 TCPU      243.57
 NUMERICALLY INTEGRATED DENSITY    120.0000261665
 TTTTTTTTTTTTTTTTTTTTTTTTTTTTTT NUMDFT      TELAPSE      246.43 TCPU      246.42
 CYC   0 ETOT(AU) -2.730538335047E+03 DETOT -2.73E+03 tst  0.00E+00 PX  1.00E+00
 TTTTTTTTTTTTTTTTTTTTTTTTTTTTTT FDIK        TELAPSE      247.57 TCPU      247.55
 INSULATING STATE
 TOP OF VALENCE BANDS -    BAND     60; K    1; EIG -1.8588236E-01 AU
 BOTTOM OF VIRTUAL BANDS - BAND     61; K    1; EIG -1.4137496E-01 AU
 DIRECT ENERGY BAND GAP:   1.2111 eV
 TTTTTTTTTTTTTTTTTTTTTTTTTTTTTT PDIG        TELAPSE      247.63 TCPU      247.62
 CHARGE NORMALIZATION FACTOR   1.00000000
 TOTAL ATOMIC CHARGES:
  15.0028798  15.0055987  14.9945870  14.9969577  14.9946809  14.9968872
  15.0028751  15.0055337
 TTTTTTTTTTTTTTTTTTTTTTTTTTTTTT MOQGAD      TELAPSE      247.65 TCPU      247.63
 TTTTTTTTTTTTTTTTTTTTTTTTTTTTTT SHELLXN     TELAPSE      455.43 TCPU      455.42
 TTTTTTTTTTTTTTTTTTTTTTTTTTTTTT MONMO3      TELAPSE      490.13 TCPU      490.12
 NUMERICALLY INTEGRATED DENSITY    120.0000264244
 TTTTTTTTTTTTTTTTTTTTTTTTTTTTTT NUMDFT      TELAPSE      492.93 TCPU      492.92
 CYC   1 ETOT(AU) -2.730040338053E+03 DETOT  4.98E-01 tst  0.00E+00 PX  8.05E-02
 TTTTTTTTTTTTTTTTTTTTTTTTTTTTTT FDIK        TELAPSE      493.33 TCPU      493.31
 INSULATING STATE
 TOP OF VALENCE BANDS -    BAND     60; K    1; EIG -1.8649015E-01 AU
 BOTTOM OF VIRTUAL BANDS - BAND     61; K    1; EIG -1.4215859E-01 AU
 DIRECT ENERGY BAND GAP:   1.2063 eV
 TTTTTTTTTTTTTTTTTTTTTTTTTTTTTT PDIG        TELAPSE      493.39 TCPU      493.38
 CHARGE NORMALIZATION FACTOR   1.00000000
 TOTAL ATOMIC CHARGES:
  14.9909258  14.9926872  15.0073741  15.0090133  15.0073972  15.0089211
  14.9909728  14.9927086
 TTTTTTTTTTTTTTTTTTTTTTTTTTTTTT MOQGAD      TELAPSE      493.41 TCPU      493.39
 TTTTTTTTTTTTTTTTTTTTTTTTTTTTTT SHELLXN     TELAPSE      701.58 TCPU      701.56
 TTTTTTTTTTTTTTTTTTTTTTTTTTTTTT MONMO3      TELAPSE      737.29 TCPU      737.27
 NUMERICALLY INTEGRATED DENSITY    120.0000265893
 TTTTTTTTTTTTTTTTTTTTTTTTTTTTTT NUMDFT      TELAPSE      740.10 TCPU      740.08
 CYC   2 ETOT(AU) -2.730041401732E+03 DETOT -1.06E-03 tst  7.85E-06 PX  4.97E-03
 TTTTTTTTTTTTTTTTTTTTTTTTTTTTTT FDIK        TELAPSE      740.56 TCPU      740.54
 INSULATING STATE
 TOP OF VALENCE BANDS -    BAND     60; K    1; EIG -1.8422165E-01 AU
 BOTTOM OF VIRTUAL BANDS - BAND     61; K    1; EIG -1.4017400E-01 AU
 DIRECT ENERGY BAND GAP:   1.1986 eV
 TTTTTTTTTTTTTTTTTTTTTTTTTTTTTT PDIG        TELAPSE      740.62 TCPU      740.61
 CHARGE NORMALIZATION FACTOR   1.00000000
 TOTAL ATOMIC CHARGES:
  14.9947207  14.9958486  15.0041619  15.0052731  15.0041843  15.0052455
  14.9947311  14.9958348
 TTTTTTTTTTTTTTTTTTTTTTTTTTTTTT MOQGAD      TELAPSE      740.64 TCPU      740.62
 TTTTTTTTTTTTTTTTTTTTTTTTTTTTTT SHELLXN     TELAPSE      948.38 TCPU      948.36
 TTTTTTTTTTTTTTTTTTTTTTTTTTTTTT MONMO3      TELAPSE      984.44 TCPU      984.42
 NUMERICALLY INTEGRATED DENSITY    120.0000265220
 TTTTTTTTTTTTTTTTTTTTTTTTTTTTTT NUMDFT      TELAPSE      987.23 TCPU      987.22
 CYC   3 ETOT(AU) -2.730041618091E+03 DETOT -2.16E-04 tst  1.08E-06 PX  2.69E-03
 ANDERSON MIX: BETA=  -2.823679091156E-01
 TTTTTTTTTTTTTTTTTTTTTTTTTTTTTT FDIK        TELAPSE      987.66 TCPU      987.65
 INSULATING STATE
 TOP OF VALENCE BANDS -    BAND     60; K    1; EIG -1.8347424E-01 AU
 BOTTOM OF VIRTUAL BANDS - BAND     61; K    1; EIG -1.3965342E-01 AU
 DIRECT ENERGY BAND GAP:   1.1924 eV
 TTTTTTTTTTTTTTTTTTTTTTTTTTTTTT PDIG        TELAPSE      987.72 TCPU      987.71
 CHARGE NORMALIZATION FACTOR   1.00000000
 TOTAL ATOMIC CHARGES:
  14.9940800  14.9947727  15.0052120  15.0059347  15.0052129  15.0059210
  14.9940891  14.9947776
 TTTTTTTTTTTTTTTTTTTTTTTTTTTTTT MOQGAD      TELAPSE      987.74 TCPU      987.72
 TTTTTTTTTTTTTTTTTTTTTTTTTTTTTT SHELLXN     TELAPSE     1195.66 TCPU     1195.65
 TTTTTTTTTTTTTTTTTTTTTTTTTTTTTT MONMO3      TELAPSE     1230.17 TCPU     1230.15
 NUMERICALLY INTEGRATED DENSITY    120.0000265239
 TTTTTTTTTTTTTTTTTTTTTTTTTTTTTT NUMDFT      TELAPSE     1233.08 TCPU     1233.06
 CYC   4 ETOT(AU) -2.730041685733E+03 DETOT -6.76E-05 tst  6.69E-07 PX  1.58E-03
 ANDERSON MIX: BETA=  -7.539145489099E-01
 TTTTTTTTTTTTTTTTTTTTTTTTTTTTTT FDIK        TELAPSE     1233.53 TCPU     1233.51
 INSULATING STATE
 TOP OF VALENCE BANDS -    BAND     60; K    1; EIG -1.8249332E-01 AU
 BOTTOM OF VIRTUAL BANDS - BAND     61; K    1; EIG -1.3896900E-01 AU
 DIRECT ENERGY BAND GAP:   1.1844 eV
 TTTTTTTTTTTTTTTTTTTTTTTTTTTTTT PDIG        TELAPSE     1233.59 TCPU     1233.57
 CHARGE NORMALIZATION FACTOR   1.00000000
 TOTAL ATOMIC CHARGES:
  14.9950452  14.9953655  15.0046127  15.0049781  15.0046204  15.0049700
  14.9950487  14.9953593
 TTTTTTTTTTTTTTTTTTTTTTTTTTTTTT MOQGAD      TELAPSE     1233.60 TCPU     1233.59
 TTTTTTTTTTTTTTTTTTTTTTTTTTTTTT SHELLXN     TELAPSE     1441.97 TCPU     1441.96
 TTTTTTTTTTTTTTTTTTTTTTTTTTTTTT MONMO3      TELAPSE     1475.75 TCPU     1475.74
 NUMERICALLY INTEGRATED DENSITY    120.0000265029
 TTTTTTTTTTTTTTTTTTTTTTTTTTTTTT NUMDFT      TELAPSE     1478.55 TCPU     1478.53
 CYC   5 ETOT(AU) -2.730041710378E+03 DETOT -2.46E-05 tst  6.80E-07 PX  1.95E-03
 ANDERSON MIX: BETA=   1.735670642507E-01
 TTTTTTTTTTTTTTTTTTTTTTTTTTTTTT FDIK        TELAPSE     1478.99 TCPU     1478.98
 INSULATING STATE
 TOP OF VALENCE BANDS -    BAND     60; K    1; EIG -1.8259571E-01 AU
 BOTTOM OF VIRTUAL BANDS - BAND     61; K    1; EIG -1.3912220E-01 AU
 DIRECT ENERGY BAND GAP:   1.1830 eV
 TTTTTTTTTTTTTTTTTTTTTTTTTTTTTT PDIG        TELAPSE     1479.05 TCPU     1479.04
 CHARGE NORMALIZATION FACTOR   1.00000000
 TOTAL ATOMIC CHARGES:
  14.9947230  14.9950518  15.0049328  15.0052924  15.0049362  15.0052854
  14.9947317  14.9950469
 TTTTTTTTTTTTTTTTTTTTTTTTTTTTTT MOQGAD      TELAPSE     1479.07 TCPU     1479.05
 TTTTTTTTTTTTTTTTTTTTTTTTTTTTTT SHELLXN     TELAPSE     1686.86 TCPU     1686.84
 TTTTTTTTTTTTTTTTTTTTTTTTTTTTTT MONMO3      TELAPSE     1722.93 TCPU     1722.91
 NUMERICALLY INTEGRATED DENSITY    120.0000265086
 TTTTTTTTTTTTTTTTTTTTTTTTTTTTTT NUMDFT      TELAPSE     1725.74 TCPU     1725.72
 CYC   6 ETOT(AU) -2.730041712009E+03 DETOT -1.63E-06 tst  1.61E-08 PX  3.62E-04
 ANDERSON MIX: BETA=   2.410768014745E-01
 TTTTTTTTTTTTTTTTTTTTTTTTTTTTTT FDIK        TELAPSE     1726.17 TCPU     1726.15
 INSULATING STATE
 TOP OF VALENCE BANDS -    BAND     60; K    1; EIG -1.8248786E-01 AU
 BOTTOM OF VIRTUAL BANDS - BAND     61; K    1; EIG -1.3909477E-01 AU
 DIRECT ENERGY BAND GAP:   1.1808 eV
 TTTTTTTTTTTTTTTTTTTTTTTTTTTTTT PDIG        TELAPSE     1726.24 TCPU     1726.22
 CHARGE NORMALIZATION FACTOR   1.00000000
 TOTAL ATOMIC CHARGES:
  14.9947976  14.9950787  15.0049124  15.0052113  15.0049120  15.0052085
  14.9948062  14.9950733
 TTTTTTTTTTTTTTTTTTTTTTTTTTTTTT MOQGAD      TELAPSE     1726.25 TCPU     1726.23
 TTTTTTTTTTTTTTTTTTTTTTTTTTTTTT SHELLXN     TELAPSE     1934.11 TCPU     1934.09
 TTTTTTTTTTTTTTTTTTTTTTTTTTTTTT MONMO3      TELAPSE     1968.85 TCPU     1968.83
 NUMERICALLY INTEGRATED DENSITY    120.0000265074
 TTTTTTTTTTTTTTTTTTTTTTTTTTTTTT NUMDFT      TELAPSE     1971.75 TCPU     1971.73
 CYC   7 ETOT(AU) -2.730041713623E+03 DETOT -1.61E-06 tst  3.43E-08 PX  4.34E-04
 ANDERSON MIX: BETA=  -2.203254420742E+00
 TTTTTTTTTTTTTTTTTTTTTTTTTTTTTT FDIK        TELAPSE     1972.17 TCPU     1972.15
 INSULATING STATE
 TOP OF VALENCE BANDS -    BAND     60; K    1; EIG -1.8222974E-01 AU
 BOTTOM OF VIRTUAL BANDS - BAND     61; K    1; EIG -1.3907164E-01 AU
 DIRECT ENERGY BAND GAP:   1.1744 eV
 TTTTTTTTTTTTTTTTTTTTTTTTTTTTTT PDIG        TELAPSE     1972.24 TCPU     1972.22
 CHARGE NORMALIZATION FACTOR   1.00000000
 TOTAL ATOMIC CHARGES:
  14.9949023  14.9950664  15.0049326  15.0050984  15.0049243  15.0051000
  14.9949112  14.9950647
 TTTTTTTTTTTTTTTTTTTTTTTTTTTTTT MOQGAD      TELAPSE     1972.25 TCPU     1972.23
 TTTTTTTTTTTTTTTTTTTTTTTTTTTTTT SHELLXN     TELAPSE     2180.30 TCPU     2180.28
 TTTTTTTTTTTTTTTTTTTTTTTTTTTTTT MONMO3      TELAPSE     2214.49 TCPU     2214.47
 NUMERICALLY INTEGRATED DENSITY    120.0000265064
 TTTTTTTTTTTTTTTTTTTTTTTTTTTTTT NUMDFT      TELAPSE     2217.29 TCPU     2217.27
 CYC   8 ETOT(AU) -2.730041714464E+03 DETOT -8.41E-07 tst  2.89E-07 PX  1.10E-03
 ANDERSON MIX: BETA=  -4.175150555888E-01
 TTTTTTTTTTTTTTTTTTTTTTTTTTTTTT FDIK        TELAPSE     2217.73 TCPU     2217.71
 INSULATING STATE
 TOP OF VALENCE BANDS -    BAND     60; K    1; EIG -1.8209546E-01 AU
 BOTTOM OF VIRTUAL BANDS - BAND     61; K    1; EIG -1.3907390E-01 AU
 DIRECT ENERGY BAND GAP:   1.1707 eV
 TTTTTTTTTTTTTTTTTTTTTTTTTTTTTT PDIG        TELAPSE     2217.79 TCPU     2217.77
 CHARGE NORMALIZATION FACTOR   1.00000000
 TOTAL ATOMIC CHARGES:
  14.9949918  14.9950886  15.0049160  15.0050037  15.0049094  15.0050095
  14.9949982  14.9950830
 TTTTTTTTTTTTTTTTTTTTTTTTTTTTTT MOQGAD      TELAPSE     2217.80 TCPU     2217.78
 TTTTTTTTTTTTTTTTTTTTTTTTTTTTTT SHELLXN     TELAPSE     2425.81 TCPU     2425.79
 TTTTTTTTTTTTTTTTTTTTTTTTTTTTTT MONMO3      TELAPSE     2460.37 TCPU     2460.35
 NUMERICALLY INTEGRATED DENSITY    120.0000265063
 TTTTTTTTTTTTTTTTTTTTTTTTTTTTTT NUMDFT      TELAPSE     2463.16 TCPU     2463.14
 CYC   9 ETOT(AU) -2.730041713042E+03 DETOT  1.42E-06 tst  9.41E-08 PX  6.55E-04
 ANDERSON MIX: BETA=  -2.477112253032E-02
 TTTTTTTTTTTTTTTTTTTTTTTTTTTTTT FDIK        TELAPSE     2463.59 TCPU     2463.57
 INSULATING STATE
 TOP OF VALENCE BANDS -    BAND     60; K    1; EIG -1.8207402E-01 AU
 BOTTOM OF VIRTUAL BANDS - BAND     61; K    1; EIG -1.3908808E-01 AU
 DIRECT ENERGY BAND GAP:   1.1697 eV
 TTTTTTTTTTTTTTTTTTTTTTTTTTTTTT PDIG        TELAPSE     2463.65 TCPU     2463.63
 CHARGE NORMALIZATION FACTOR   1.00000000
 TOTAL ATOMIC CHARGES:
  14.9950016  14.9950893  15.0049113  15.0049978  15.0049104  15.0049975
  14.9950065  14.9950856
 TTTTTTTTTTTTTTTTTTTTTTTTTTTTTT MOQGAD      TELAPSE     2463.67 TCPU     2463.65
 TTTTTTTTTTTTTTTTTTTTTTTTTTTTTT SHELLXN     TELAPSE     2671.66 TCPU     2671.64
 TTTTTTTTTTTTTTTTTTTTTTTTTTTTTT MONMO3      TELAPSE     2706.47 TCPU     2706.45
 NUMERICALLY INTEGRATED DENSITY    120.0000265069
 TTTTTTTTTTTTTTTTTTTTTTTTTTTTTT NUMDFT      TELAPSE     2709.38 TCPU     2709.36
 CYC  10 ETOT(AU) -2.730041712643E+03 DETOT  3.99E-07 tst  5.80E-09 PX  9.08E-05
 ANDERSON MIX: BETA=  -8.028525407428E-01
 TTTTTTTTTTTTTTTTTTTTTTTTTTTTTT FDIK        TELAPSE     2709.81 TCPU     2709.79
 INSULATING STATE
 TOP OF VALENCE BANDS -    BAND     60; K    1; EIG -1.8203895E-01 AU
 BOTTOM OF VIRTUAL BANDS - BAND     61; K    1; EIG -1.3910506E-01 AU
 DIRECT ENERGY BAND GAP:   1.1683 eV
 TTTTTTTTTTTTTTTTTTTTTTTTTTTTTT PDIG        TELAPSE     2709.87 TCPU     2709.85
 CHARGE NORMALIZATION FACTOR   1.00000000
 TOTAL ATOMIC CHARGES:
  14.9950302  14.9950978  15.0049023  15.0049698  15.0049007  15.0049705
  14.9950339  14.9950947
 TTTTTTTTTTTTTTTTTTTTTTTTTTTTTT MOQGAD      TELAPSE     2709.88 TCPU     2709.86
 TTTTTTTTTTTTTTTTTTTTTTTTTTTTTT SHELLXN     TELAPSE     2917.88 TCPU     2917.87
 TTTTTTTTTTTTTTTTTTTTTTTTTTTTTT MONMO3      TELAPSE     2952.12 TCPU     2952.10
 NUMERICALLY INTEGRATED DENSITY    120.0000265076
 TTTTTTTTTTTTTTTTTTTTTTTTTTTTTT NUMDFT      TELAPSE     2954.94 TCPU     2954.92
 CYC  11 ETOT(AU) -2.730041712010E+03 DETOT  6.33E-07 tst  1.23E-08 PX  9.13E-05
 ANDERSON MIX: BETA=  -1.462678984940E+00
 TTTTTTTTTTTTTTTTTTTTTTTTTTTTTT FDIK        TELAPSE     2955.35 TCPU     2955.33
 INSULATING STATE
 TOP OF VALENCE BANDS -    BAND     60; K    1; EIG -1.8198269E-01 AU
 BOTTOM OF VIRTUAL BANDS - BAND     61; K    1; EIG -1.3913333E-01 AU
 DIRECT ENERGY BAND GAP:   1.1660 eV
 TTTTTTTTTTTTTTTTTTTTTTTTTTTTTT PDIG        TELAPSE     2955.42 TCPU     2955.40
 CHARGE NORMALIZATION FACTOR   1.00000000
 TOTAL ATOMIC CHARGES:
  14.9950691  14.9951054  15.0048950  15.0049305  15.0048934  15.0049313
  14.9950726  14.9951028
 TTTTTTTTTTTTTTTTTTTTTTTTTTTTTT MOQGAD      TELAPSE     2955.43 TCPU     2955.41
 TTTTTTTTTTTTTTTTTTTTTTTTTTTTTT SHELLXN     TELAPSE     3163.25 TCPU     3163.23
 TTTTTTTTTTTTTTTTTTTTTTTTTTTTTT MONMO3      TELAPSE     3199.12 TCPU     3199.10
 NUMERICALLY INTEGRATED DENSITY    120.0000265087
 TTTTTTTTTTTTTTTTTTTTTTTTTTTTTT NUMDFT      TELAPSE     3201.91 TCPU     3201.89
 CYC  12 ETOT(AU) -2.730041710840E+03 DETOT  1.17E-06 tst  3.26E-08 PX  1.31E-04
 ANDERSON MIX: BETA=  -1.025988873382E-01
 TTTTTTTTTTTTTTTTTTTTTTTTTTTTTT FDIK        TELAPSE     3202.37 TCPU     3202.36
 INSULATING STATE
 TOP OF VALENCE BANDS -    BAND     60; K    1; EIG -1.8197258E-01 AU
 BOTTOM OF VIRTUAL BANDS - BAND     61; K    1; EIG -1.3913787E-01 AU
 DIRECT ENERGY BAND GAP:   1.1656 eV
 TTTTTTTTTTTTTTTTTTTTTTTTTTTTTT PDIG        TELAPSE     3202.44 TCPU     3202.42
 CHARGE NORMALIZATION FACTOR   1.00000000
 TOTAL ATOMIC CHARGES:
  14.9950798  14.9951064  15.0048937  15.0049202  15.0048929  15.0049212
  14.9950821  14.9951037
 TTTTTTTTTTTTTTTTTTTTTTTTTTTTTT MOQGAD      TELAPSE     3202.45 TCPU     3202.43
 TTTTTTTTTTTTTTTTTTTTTTTTTTTTTT SHELLXN     TELAPSE     3410.30 TCPU     3410.28
 TTTTTTTTTTTTTTTTTTTTTTTTTTTTTT MONMO3      TELAPSE     3444.65 TCPU     3444.63
 NUMERICALLY INTEGRATED DENSITY    120.0000265088
 TTTTTTTTTTTTTTTTTTTTTTTTTTTTTT NUMDFT      TELAPSE     3447.44 TCPU     3447.43
 CYC  13 ETOT(AU) -2.730041710668E+03 DETOT  1.72E-07 tst  1.02E-09 PX  4.19E-05
 ANDERSON MIX: BETA=  -2.724829763850E-01
 TTTTTTTTTTTTTTTTTTTTTTTTTTTTTT FDIK        TELAPSE     3447.87 TCPU     3447.85
 INSULATING STATE
 TOP OF VALENCE BANDS -    BAND     60; K    1; EIG -1.8196788E-01 AU
 BOTTOM OF VIRTUAL BANDS - BAND     61; K    1; EIG -1.3914159E-01 AU
 DIRECT ENERGY BAND GAP:   1.1654 eV
 TTTTTTTTTTTTTTTTTTTTTTTTTTTTTT PDIG        TELAPSE     3447.93 TCPU     3447.92
 CHARGE NORMALIZATION FACTOR   1.00000000
 TOTAL ATOMIC CHARGES:
  14.9950838  14.9951051  15.0048952  15.0049159  15.0048940  15.0049167
  14.9950864  14.9951028
 TTTTTTTTTTTTTTTTTTTTTTTTTTTTTT MOQGAD      TELAPSE     3447.95 TCPU     3447.93
 TTTTTTTTTTTTTTTTTTTTTTTTTTTTTT SHELLXN     TELAPSE     3655.72 TCPU     3655.71
 TTTTTTTTTTTTTTTTTTTTTTTTTTTTTT MONMO3      TELAPSE     3690.22 TCPU     3690.20
 NUMERICALLY INTEGRATED DENSITY    120.0000265088
 TTTTTTTTTTTTTTTTTTTTTTTTTTTTTT NUMDFT      TELAPSE     3693.01 TCPU     3692.99
 CYC  14 ETOT(AU) -2.730041710573E+03 DETOT  9.52E-08 tst  3.93E-10 PX  1.40E-05
 ANDERSON MIX: BETA=  -7.338846936378E-01
 TTTTTTTTTTTTTTTTTTTTTTTTTTTTTT FDIK        TELAPSE     3693.42 TCPU     3693.40
 INSULATING STATE
 TOP OF VALENCE BANDS -    BAND     60; K    1; EIG -1.8196330E-01 AU
 BOTTOM OF VIRTUAL BANDS - BAND     61; K    1; EIG -1.3914605E-01 AU
 DIRECT ENERGY BAND GAP:   1.1651 eV
 TTTTTTTTTTTTTTTTTTTTTTTTTTTTTT PDIG        TELAPSE     3693.48 TCPU     3693.46
 CHARGE NORMALIZATION FACTOR   1.00000000
 TOTAL ATOMIC CHARGES:
  14.9950890  14.9951050  15.0048956  15.0049105  15.0048948  15.0049114
  14.9950912  14.9951025
 TTTTTTTTTTTTTTTTTTTTTTTTTTTTTT MOQGAD      TELAPSE     3693.50 TCPU     3693.48
 TTTTTTTTTTTTTTTTTTTTTTTTTTTTTT SHELLXN     TELAPSE     3901.12 TCPU     3901.10

 ::: DIPOLE MOMENT ALONG NON PERIODIC DIRECTIONS:
 ::: A.U.     (Z)  2.41358E-06
 ::: DEBYE        -6.13470E-06

 +++ ENERGIES IN A.U. +++
 ::: EXT EL-POLE                                  -8.2532957592003E+03
 ::: EXT EL-SPHEROPOLE                             0.0000000000000E+00
 ::: BIELET ZONE E-E                               3.4450182148240E+03
 ::: TOTAL E-E                                    -4.8082775443764E+03
 ::: TOTAL E-N + N-E                               5.4832531037257E+03
 ::: TOTAL N-N                                    -5.9875060909576E+03
 ::: KINETIC ENERGY                                2.7223983334496E+03
 ::: PSEUDO TOTAL   ENERGY                        -2.5901321981587E+03
 ::: VIRIAL COEFFICIENT                            1.0248970117920E+00
 TTTTTTTTTTTTTTTTTTTTTTTTTTTTTT MONMO3      TELAPSE     3935.71 TCPU     3935.69
 NUMERICALLY INTEGRATED DENSITY    120.0000265088
 TTTTTTTTTTTTTTTTTTTTTTTTTTTTTT NUMDFT      TELAPSE     3938.49 TCPU     3938.47
 CYC  15 ETOT(AU) -2.730041710477E+03 DETOT  9.54E-08 tst  5.57E-10 PX  1.40E-05

 == SCF ENDED - CONVERGENCE ON ENERGY      E(AU) -2.7300417104772E+03 CYCLES  15


 ENERGY EXPRESSION=HARTREE+FOCK EXCH*0.25000+(PBE        EXCH)*0.75000+PBE        CORR


 TOTAL ENERGY(DFT)(AU)( 15) -2.7300417104772E+03 DE 9.5E-08 tester 5.6E-10
 TTTTTTTTTTTTTTTTTTTTTTTTTTTTTT EDFT        TELAPSE     3938.50 TCPU     3938.48

 *******************************************************************************
 *                             FORCE CALCULATION                               *
 *******************************************************************************

 TTTTTTTTTTTTTTTTTTTTTTTTTTTTTT NUMDFG      TELAPSE     3959.35 TCPU     3959.33
 INFORMATION **** EXCPOG **** EXCH. BIPO BUFFER LENGTH (WORDS) =    10894032
 INFORMATION **** GENPOG **** BIPO BUFFER LENGTH (WORDS) =      896800
 TTTTTTTTTTTTTTTTTTTTTTTTTTTTTT SHELXG      TELAPSE     6171.98 TCPU     6171.97
 GRIMME ENERGY AND GRADIENT CORRECTION

 CARTESIAN FORCES (GRIMME)  XATOM               Y                   Z
   1  15             3.070227157793E-07  1.745380977468E-03 -4.198876939028E-04
   2  15             3.070227157820E-07 -1.745380977468E-03 -4.198876939028E-04
   3  15            -4.934509166100E-04  1.964587089116E-03 -1.510852879394E-03
   4  15            -4.934509166100E-04 -1.964587089116E-03 -1.510852879394E-03
   5  15             4.934509166100E-04  1.964587089116E-03  1.510852879394E-03
   6  15             4.934509166100E-04 -1.964587089116E-03  1.510852879394E-03
   7  15            -3.070227157792E-07  1.745380977468E-03  4.198876939028E-04
   8  15            -3.070227157821E-07 -1.745380977468E-03  4.198876939028E-04

 GRIMME DISPERSION ENERGY (AU) -6.7359880242023E-02
 TOTAL ENERGY + DISP (AU) -2.7301090703574E+03

 CARTESIAN FORCES IN HARTREE/BOHR (ANALYTICAL)
   ATOM                     X                   Y                   Z
   1  15            -6.374694894961E-04  8.406595368480E-03 -4.918167752209E-03
   2  15            -6.374256005597E-04 -8.406309836719E-03 -4.916672680366E-03
   3  15            -1.589259291103E-03  6.300317174957E-03  6.680065307769E-03
   4  15            -1.589333666249E-03 -6.300604564599E-03  6.680237263943E-03
   5  15             1.589254946300E-03  6.301037922387E-03 -6.680086121534E-03
   6  15             1.589293906140E-03 -6.301302786059E-03 -6.680264626858E-03
   7  15             6.374888051080E-04  8.406435564202E-03  4.918179864291E-03
   8  15             6.374503898824E-04 -8.406168843416E-03  4.916708743593E-03

 RESULTANT FORCE     2.291211925048E-14 -7.673861546209E-13 -1.371347480017E-12

 ATOMIC PART

 SYMMETRY ALLOWED FORCES (ANALYTICAL) (DIRECTION, FORCE)

    1 -6.3746949E-04    2  8.4065954E-03    3 -4.9181678E-03    4 -6.3742560E-04
    5 -8.4063098E-03    6 -4.9166727E-03    7 -1.5893337E-03    8 -6.3006046E-03
    9  6.6802373E-03   10  1.5892939E-03   11 -6.3013028E-03   12 -6.6802646E-03
   13  6.3748881E-04   14  8.4064356E-03   15  4.9181799E-03   16  6.3745039E-04
   17 -8.4061688E-03   18  4.9167087E-03

 CELL PART

 GRADIENT WITH RESPECT TO THE CELL PARAMETER IN HARTREE/BOHR
 ORDER: -D/DA1X, -D/DA1Y
       -D/DA2X, -D/DA2Y

  0.844367915738E-02 -0.208488813565E-07
 -0.162407187759E-07 -0.312668636093E-02

 SYMMETRY ALLOWED FORCES (ANALYTICAL) (DIRECTION, FORCE)

    1  2.9808573E-03    2  8.7949519E-03    3 -2.9638102E-08
 TTTTTTTTTTTTTTTTTTTTTTTTTTTTTT TOTGRA_C    TELAPSE     6581.51 TCPU     6581.50
 INFORMATION **** optc001 **** GEOMETRY OUTPUT FILE
 CLASSICAL MODEL (SCHLEGEL) USED AS INITIAL HESSIAN MATRIX
 REFERENCE GEOMETRY DEFINED

 MAX GRADIENT      0.008795  THRESHOLD              0.000450 CONVERGED NO
 RMS GRADIENT      0.005525  THRESHOLD              0.000300 CONVERGED NO

 GRADIENT NORM     0.025317  GRADIENT THRESHOLD     0.500000

 EIGENVALUES OF THE ESTIMATED HESSIAN
  0.2387E-01  0.2703E-01  0.2853E-01  0.3234E-01  0.4266E-01  0.5522E-01
  0.5782E-01  0.6824E-01  0.8856E-01  0.1475      0.1649      0.1702    
  0.1907      0.1942      0.2166      0.2884      0.3049      0.3108    
  0.3242      0.4167      0.4304    

 INITIAL TRUST RADIUS    0.5000000000E+00

 PREDICTED ENERGY CHANGE    -0.312E-02

 INITIAL DISPLACEMENTS
 -0.038130  0.039488 -0.078504 -0.048039 -0.091586 -0.082922 -0.026675 -0.115470
  0.007885 -0.006525 -0.089608 -0.025569  0.033330 -0.011325  0.062768  0.020315
 -0.144852  0.075339  0.167047  0.046118  0.024874
 TTTTTTTTTTTTTTTTTTTTTTTTTTTTTT OPTI        TELAPSE     6581.59 TCPU     6581.58

 OPTOPTOPTOPTOPTOPTOPTOPTOPTOPTOPTOPTOPTOPTOPTOPTOPTOPTOPTOPTOPTOPTOPTOPTOPTOPT

 - INFORMATION ON SCF MOVED TO SCFOUT.LOG
 GEOMETRY OPTIMIZATION INFORMATION STORED IN OPTINFO.DAT

 OPTOPTOPTOPTOPTOPTOPTOPTOPTOPTOPTOPTOPTOPTOPTOPTOPTOPTOPTOPTOPTOPTOPTOPTOPTOPT
 *******************************************************************************
 COORDINATE AND CELL OPTIMIZATION - POINT    2
 *******************************************************************************
 LATTICE PARAMETERS (ANGSTROMS AND DEGREES) - BOHR = 0.5291772083 ANGSTROM
 PRIMITIVE CELL
         A              B              C           ALPHA      BETA       GAMMA 
     3.34867120     4.41951451   500.00000000    90.000000  90.000000  89.684293
 *******************************************************************************
 ATOMS IN THE ASYMMETRIC UNIT    8 - ATOMS IN THE UNIT CELL:    8
     ATOM                 X/A                 Y/B             Z(ANGSTROM)
 *******************************************************************************
      1 T  15 P    -6.170473189561E-03 -4.165773158136E-01  3.658457544926E+00
      2 T  15 P     4.922260090255E-01 -8.974583501574E-02  3.656119550286E+00
      3 T  15 P    -5.000000000000E-01  7.863000000000E-02  1.550000000000E+00
      4 T  15 P    -4.316780881948E-03  4.073552766628E-01  1.554172763764E+00
      5 T  15 P     2.500000000000E-01 -4.213700000000E-01 -1.550000000000E+00
      6 T  15 P    -2.510559179991E-01 -8.950583638048E-02 -1.563530503945E+00
      7 T  15 P    -2.446063391327E-01  7.725545623606E-02 -3.666784762388E+00
      8 T  15 P     2.532876053626E-01  4.037892105453E-01 -3.660132206568E+00

 T = ATOM BELONGING TO THE ASYMMETRIC UNIT

 TOTAL ENERGY(DFT)(AU)( 15) -2.7301105820488E+03     DE (AU)   -1.512E-03

 UPDATED TRUST RADIUS     0.500E+00

 SYMMETRY ALLOWED FORCES  (COORDINATE, FORCE)

    1  3.4065428E-04    2 -2.3697063E-03    3 -8.7055972E-04    4 -9.8838443E-05
    5  5.9701832E-05    6 -1.2323288E-03    7 -8.0126940E-04    8  1.9503692E-03
    9  3.1008634E-03   10  2.0915701E-03   11 -3.8582053E-03   12 -2.3178967E-03
   13 -2.6952984E-04   14 -5.7378181E-04   15  5.6987205E-04   16  1.3180008E-05
   17  3.0092186E-03   18  1.4297650E-03   19 -1.6651654E-02   20 -1.2834997E-02
   21 -2.4199972E-03

 GRADIENT NORM     0.022504  GRADIENT THRESHOLD     0.500000

 EIGENVALUES OF THE ESTIMATED HESSIAN
  0.2427E-01  0.2691E-01  0.2797E-01  0.3227E-01  0.4133E-01  0.5480E-01
  0.5828E-01  0.6981E-01  0.1325      0.1479      0.1650      0.1702    
  0.1933      0.2014      0.2342      0.2870      0.2999      0.3070    
  0.3242      0.3996      0.4307    

 PREDICTED ENERGY CHANGE    -0.123E-02

 MAX GRADIENT      0.016652  THRESHOLD              0.000450 CONVERGED NO
 RMS GRADIENT      0.004911  THRESHOLD              0.000300 CONVERGED NO
 MAX DISPLAC.      0.080588  THRESHOLD              0.001800 CONVERGED NO
 RMS DISPLAC.      0.026595  THRESHOLD              0.001200 CONVERGED NO
 TTTTTTTTTTTTTTTTTTTTTTTTTTTTTT OPTI        TELAPSE    13265.81 TCPU    13265.80
 *******************************************************************************
 COORDINATE AND CELL OPTIMIZATION - POINT    3
 *******************************************************************************
 LATTICE PARAMETERS (ANGSTROMS AND DEGREES) - BOHR = 0.5291772083 ANGSTROM
 PRIMITIVE CELL
         A              B              C           ALPHA      BETA       GAMMA 
     3.29403425     4.42778608   500.00000000    90.000000  90.000000  89.967115
 *******************************************************************************
 ATOMS IN THE ASYMMETRIC UNIT    8 - ATOMS IN THE UNIT CELL:    8
     ATOM                 X/A                 Y/B             Z(ANGSTROM)
 *******************************************************************************
      1 T  15 P    -7.033334066738E-03 -4.194259298315E-01  3.657612417797E+00
      2 T  15 P     4.927875144495E-01 -9.060420519962E-02  3.651891717357E+00
      3 T  15 P    -5.000000000000E-01  7.863000000000E-02  1.550000000000E+00
      4 T  15 P    -3.722524271124E-03  4.093642051064E-01  1.562355371673E+00
      5 T  15 P     2.500000000000E-01 -4.213700000000E-01 -1.550000000000E+00
      6 T  15 P    -2.477041200096E-01 -8.890705525864E-02 -1.569171006718E+00
      7 T  15 P    -2.429413613776E-01  7.900114958080E-02 -3.665479850352E+00
      8 T  15 P     2.561807848021E-01  4.079846068818E-01 -3.653260701653E+00

 T = ATOM BELONGING TO THE ASYMMETRIC UNIT

 TOTAL ENERGY(DFT)(AU)(  9) -2.7301118569501E+03     DE (AU)   -1.275E-03

 UPDATED TRUST RADIUS     0.100E+01

 SYMMETRY ALLOWED FORCES  (COORDINATE, FORCE)

    1  1.9366623E-04    2 -1.9939551E-04    3  1.4388821E-03    4  2.0470387E-04
    5 -3.7990138E-04    6  3.1237489E-04    7  8.7576045E-05    8 -2.8478941E-04
    9  3.4685299E-04   10  7.3892190E-04   11 -2.9393020E-03   12 -6.0944295E-05
   13 -7.3289451E-04   14  5.6616165E-04   15 -1.2029702E-03   16  2.6938885E-04
   17  2.8905993E-04   18 -5.1499044E-04   19  7.2885378E-04   20 -9.7311342E-04
   21  4.5480377E-04

 GRADIENT NORM     0.004030  GRADIENT THRESHOLD     0.500000

 EIGENVALUES OF THE ESTIMATED HESSIAN
  0.2437E-01  0.2699E-01  0.2794E-01  0.3203E-01  0.4134E-01  0.5459E-01
  0.5611E-01  0.6975E-01  0.1333      0.1478      0.1694      0.1737    
  0.1934      0.2117      0.2158      0.2890      0.3023      0.3063    
  0.3243      0.3960      0.4326    

 PREDICTED ENERGY CHANGE    -0.789E-04

 MAX GRADIENT      0.002939  THRESHOLD              0.000450 CONVERGED NO
 RMS GRADIENT      0.000879  THRESHOLD              0.000300 CONVERGED NO
 MAX DISPLAC.      0.025394  THRESHOLD              0.001800 CONVERGED NO
 RMS DISPLAC.      0.011007  THRESHOLD              0.001200 CONVERGED NO
 TTTTTTTTTTTTTTTTTTTTTTTTTTTTTT OPTI        TELAPSE    18455.56 TCPU    18455.55
 *******************************************************************************
 COORDINATE AND CELL OPTIMIZATION - POINT    4
 *******************************************************************************
 LATTICE PARAMETERS (ANGSTROMS AND DEGREES) - BOHR = 0.5291772083 ANGSTROM
 PRIMITIVE CELL
         A              B              C           ALPHA      BETA       GAMMA 
     3.28958637     4.44718362   500.00000000    90.000000  90.000000  89.943105
 *******************************************************************************
 ATOMS IN THE ASYMMETRIC UNIT    8 - ATOMS IN THE UNIT CELL:    8
     ATOM                 X/A                 Y/B             Z(ANGSTROM)
 *******************************************************************************
      1 T  15 P    -6.190509045632E-03 -4.204036532644E-01  3.666737260705E+00
      2 T  15 P     4.933823941974E-01 -9.234490961061E-02  3.655244175752E+00
      3 T  15 P     5.000000000000E-01  7.863000000000E-02  1.550000000000E+00
      4 T  15 P    -3.577107182531E-03  4.081132275912E-01  1.569416488366E+00
      5 T  15 P     2.500000000000E-01 -4.213700000000E-01 -1.550000000000E+00
      6 T  15 P    -2.474579651599E-01 -9.110573367550E-02 -1.575487706184E+00
      7 T  15 P    -2.436505436271E-01  7.929638072810E-02 -3.673751477891E+00
      8 T  15 P     2.557599305848E-01  4.075853267115E-01 -3.655734775783E+00

 T = ATOM BELONGING TO THE ASYMMETRIC UNIT

 TOTAL ENERGY(DFT)(AU)(  8) -2.7301119448911E+03     DE (AU)   -8.794E-05

 UPDATED TRUST RADIUS     0.200E+01

 SYMMETRY ALLOWED FORCES  (COORDINATE, FORCE)

    1  1.3551895E-05    2  1.4256049E-04    3  4.1459994E-04    4  1.9787663E-04
    5 -2.8122387E-04    6 -6.0310281E-04    7 -2.6796139E-05    8 -4.6878482E-06
    9  9.0744446E-04   10  2.8894583E-04   11 -1.0128528E-03   12 -7.4252626E-04
   13 -2.6529982E-04   14  5.2788466E-04   15 -1.1459975E-04   16  4.2801561E-06
   17 -3.2444347E-04   18  3.4702658E-04   19 -2.9189125E-04   20  3.7959424E-04
   21 -2.6301530E-04

 GRADIENT NORM     0.002011  GRADIENT THRESHOLD     0.500000

 EIGENVALUES OF THE ESTIMATED HESSIAN
  0.2432E-01  0.2687E-01  0.2799E-01  0.2827E-01  0.4015E-01  0.4539E-01
  0.5494E-01  0.7096E-01  0.1378      0.1470      0.1699      0.1787    
  0.1933      0.2116      0.2176      0.2878      0.3048      0.3110    
  0.3244      0.3946      0.4340    

 PREDICTED ENERGY CHANGE    -0.249E-04

 MAX GRADIENT      0.001013  THRESHOLD              0.000450 CONVERGED NO
 RMS GRADIENT      0.000439  THRESHOLD              0.000300 CONVERGED NO
 MAX DISPLAC.      0.016898  THRESHOLD              0.001800 CONVERGED NO
 RMS DISPLAC.      0.007254  THRESHOLD              0.001200 CONVERGED NO
 TTTTTTTTTTTTTTTTTTTTTTTTTTTTTT OPTI        TELAPSE    23392.51 TCPU    23392.50
 *******************************************************************************
 COORDINATE AND CELL OPTIMIZATION - POINT    5
 *******************************************************************************
 LATTICE PARAMETERS (ANGSTROMS AND DEGREES) - BOHR = 0.5291772083 ANGSTROM
 PRIMITIVE CELL
         A              B              C           ALPHA      BETA       GAMMA 
     3.28923072     4.45097481   500.00000000    90.000000  90.000000  90.006828
 *******************************************************************************
 ATOMS IN THE ASYMMETRIC UNIT    8 - ATOMS IN THE UNIT CELL:    8
     ATOM                 X/A                 Y/B             Z(ANGSTROM)
 *******************************************************************************
      1 T  15 P    -5.522523507218E-03 -4.208785993820E-01  3.674378018512E+00
      2 T  15 P     4.944342104260E-01 -9.332400972040E-02  3.654813741885E+00
      3 T  15 P    -5.000000000000E-01  7.863000000000E-02  1.550000000000E+00
      4 T  15 P    -3.141817299910E-03  4.076323676569E-01  1.578358527555E+00
      5 T  15 P     2.500000000000E-01 -4.213700000000E-01 -1.550000000000E+00
      6 T  15 P    -2.469963032427E-01 -9.247404254953E-02 -1.581782964352E+00
      7 T  15 P    -2.444567559641E-01  7.954064446249E-02 -3.678173219304E+00
      8 T  15 P     2.555385512203E-01  4.071689475303E-01 -3.654502080264E+00

 T = ATOM BELONGING TO THE ASYMMETRIC UNIT

 TOTAL ENERGY(DFT)(AU)(  8) -2.7301119792192E+03     DE (AU)   -3.433E-05

 UPDATED TRUST RADIUS     0.400E+01

 SYMMETRY ALLOWED FORCES  (COORDINATE, FORCE)

    1 -8.7942759E-05    2 -4.6672257E-06    3  3.0293256E-04    4  1.1873210E-04
    5  1.7049609E-04    6 -4.4172433E-04    7  8.3616149E-05    8  7.3024732E-05
    9  4.5463231E-04   10  7.1055051E-05   11  4.0063428E-04   12 -3.8858413E-04
   13 -1.9299749E-05   14 -6.8256446E-05   15 -9.3192031E-05   16 -3.0079745E-05
   17 -9.0059112E-05   18  2.5497646E-04   19  2.6278245E-04   20  1.1172340E-04
   21  2.2860735E-04

 GRADIENT NORM     0.001046  GRADIENT THRESHOLD     0.500000

 EIGENVALUES OF THE ESTIMATED HESSIAN
  0.2153E-01  0.2472E-01  0.2709E-01  0.2855E-01  0.3566E-01  0.4401E-01
  0.5501E-01  0.7220E-01  0.1300      0.1491      0.1704      0.1749    
  0.1942      0.2152      0.2278      0.2870      0.3074      0.3109    
  0.3248      0.4109      0.4406    

 PREDICTED ENERGY CHANGE    -0.694E-05

 MAX GRADIENT      0.000455  THRESHOLD              0.000450 CONVERGED NO
 RMS GRADIENT      0.000228  THRESHOLD              0.000300 CONVERGED YES
 MAX DISPLAC.      0.012338  THRESHOLD              0.001800 CONVERGED NO
 RMS DISPLAC.      0.004575  THRESHOLD              0.001200 CONVERGED NO
 TTTTTTTTTTTTTTTTTTTTTTTTTTTTTT OPTI        TELAPSE    28331.63 TCPU    28331.62
 *******************************************************************************
 COORDINATE AND CELL OPTIMIZATION - POINT    6
 *******************************************************************************
 LATTICE PARAMETERS (ANGSTROMS AND DEGREES) - BOHR = 0.5291772083 ANGSTROM
 PRIMITIVE CELL
         A              B              C           ALPHA      BETA       GAMMA 
     3.28926473     4.45332621   500.00000000    90.000000  90.000000  90.002213
 *******************************************************************************
 ATOMS IN THE ASYMMETRIC UNIT    8 - ATOMS IN THE UNIT CELL:    8
     ATOM                 X/A                 Y/B             Z(ANGSTROM)
 *******************************************************************************
      1 T  15 P    -5.138292184522E-03 -4.207047944920E-01  3.680519752625E+00
      2 T  15 P     4.949327879296E-01 -9.330271075523E-02  3.654082943153E+00
      3 T  15 P     5.000000000000E-01  7.863000000000E-02  1.550000000000E+00
      4 T  15 P    -2.977693844360E-03  4.075096178104E-01  1.584887667105E+00
      5 T  15 P     2.500000000000E-01 -4.213700000000E-01 -1.550000000000E+00
      6 T  15 P    -2.468626819603E-01 -9.272348805617E-02 -1.585880048011E+00
      7 T  15 P    -2.448583719633E-01  7.950398847231E-02 -3.681306635578E+00
      8 T  15 P     2.551898366406E-01  4.068289446822E-01 -3.653821317696E+00

 T = ATOM BELONGING TO THE ASYMMETRIC UNIT

 TOTAL ENERGY(DFT)(AU)(  5) -2.7301119882239E+03     DE (AU)   -9.005E-06

 UPDATED TRUST RADIUS     0.400E+01

 SYMMETRY ALLOWED FORCES  (COORDINATE, FORCE)

    1 -1.7965119E-05    2 -4.0427296E-05    3  5.8438592E-05    4 -5.6812382E-05
    5  9.6357555E-05    6 -1.3969122E-04    7  1.0652711E-05    8  5.7588166E-05
    9  1.3231137E-04   10 -1.5430324E-04   11  4.1520047E-04   12 -1.0159455E-04
   13  1.1153969E-04   14 -1.9743119E-04   15 -6.4361453E-05   16 -2.8721420E-05
   17  9.1915051E-05   18  1.1853350E-04   19  4.3792810E-05   20  1.3214109E-04
   21 -8.8636761E-05

 GRADIENT NORM     0.000609  GRADIENT THRESHOLD     0.500000

 EIGENVALUES OF THE ESTIMATED HESSIAN
  0.2003E-01  0.2576E-01  0.2705E-01  0.2856E-01  0.3286E-01  0.4810E-01
  0.5565E-01  0.7242E-01  0.1235      0.1484      0.1704      0.1729    
  0.1948      0.2102      0.2170      0.2892      0.3062      0.3116    
  0.3243      0.4046      0.4456    

 PREDICTED ENERGY CHANGE    -0.149E-05

 MAX GRADIENT      0.000415  THRESHOLD              0.000450 CONVERGED YES
 RMS GRADIENT      0.000133  THRESHOLD              0.000300 CONVERGED YES
 MAX DISPLAC.      0.004114  THRESHOLD              0.001800 CONVERGED NO
 RMS DISPLAC.      0.001807  THRESHOLD              0.001200 CONVERGED NO
 TTTTTTTTTTTTTTTTTTTTTTTTTTTTTT OPTI        TELAPSE    32513.39 TCPU    32513.38
 *******************************************************************************
 COORDINATE AND CELL OPTIMIZATION - POINT    7
 *******************************************************************************
 LATTICE PARAMETERS (ANGSTROMS AND DEGREES) - BOHR = 0.5291772083 ANGSTROM
 PRIMITIVE CELL
         A              B              C           ALPHA      BETA       GAMMA 
     3.28990312     4.45082929   500.00000000    90.000000  90.000000  90.008437
 *******************************************************************************
 ATOMS IN THE ASYMMETRIC UNIT    8 - ATOMS IN THE UNIT CELL:    8
     ATOM                 X/A                 Y/B             Z(ANGSTROM)
 *******************************************************************************
      1 T  15 P    -5.208419840839E-03 -4.206578585499E-01  3.682696574055E+00
      2 T  15 P     4.949048124637E-01 -9.308959978547E-02  3.654129726134E+00
      3 T  15 P    -5.000000000000E-01  7.863000000000E-02  1.550000000000E+00
      4 T  15 P    -2.920069089655E-03  4.076837250375E-01  1.586844855008E+00
      5 T  15 P     2.500000000000E-01 -4.213700000000E-01 -1.550000000000E+00
      6 T  15 P    -2.469085323320E-01 -9.241819836924E-02 -1.586825625957E+00
      7 T  15 P    -2.448115609739E-01  7.947276891443E-02 -3.682635478106E+00
      8 T  15 P     2.552342787399E-01  4.070023912484E-01 -3.653999817379E+00

 T = ATOM BELONGING TO THE ASYMMETRIC UNIT

 TOTAL ENERGY(DFT)(AU)(  3) -2.7301119909239E+03     DE (AU)   -2.700E-06

 UPDATED TRUST RADIUS     0.400E+01

 SYMMETRY ALLOWED FORCES  (COORDINATE, FORCE)

    1  4.0266625E-07    2  1.3520409E-05    3  5.7287931E-05    4 -3.1482903E-05
    5  2.0300340E-05    6 -6.6624743E-05    7 -7.8097572E-06    8 -1.5953315E-05
    9  5.8893099E-05   10 -5.9070067E-05   11  1.4216795E-04   12 -7.8800112E-05
   13  4.9422250E-05   14 -7.9824532E-05   15 -6.5593912E-05   16 -8.9909057E-06
   17  2.5022572E-05   18  7.3043518E-05   19  5.1123203E-05   20 -7.3418127E-05
   21  3.4805408E-05

 GRADIENT NORM     0.000267  GRADIENT THRESHOLD     0.500000

 EIGENVALUES OF THE ESTIMATED HESSIAN
  0.1364E-01  0.2694E-01  0.2762E-01  0.2829E-01  0.3098E-01  0.5406E-01
  0.5948E-01  0.7576E-01  0.1244      0.1468      0.1667      0.1716    
  0.1889      0.1954      0.2176      0.2884      0.3041      0.3109    
  0.3228      0.3938      0.4466    

 PREDICTED ENERGY CHANGE    -0.716E-06

 MAX GRADIENT      0.000142  THRESHOLD              0.000450 CONVERGED YES
 RMS GRADIENT      0.000058  THRESHOLD              0.000300 CONVERGED YES
 MAX DISPLAC.      0.004921  THRESHOLD              0.001800 CONVERGED NO
 RMS DISPLAC.      0.001885  THRESHOLD              0.001200 CONVERGED NO
 TTTTTTTTTTTTTTTTTTTTTTTTTTTTTT OPTI        TELAPSE    36194.90 TCPU    36194.88
 *******************************************************************************
 COORDINATE AND CELL OPTIMIZATION - POINT    8
 *******************************************************************************
 LATTICE PARAMETERS (ANGSTROMS AND DEGREES) - BOHR = 0.5291772083 ANGSTROM
 PRIMITIVE CELL
         A              B              C           ALPHA      BETA       GAMMA 
     3.28985667     4.45102331   500.00000000    90.000000  90.000000  90.004466
 *******************************************************************************
 ATOMS IN THE ASYMMETRIC UNIT    8 - ATOMS IN THE UNIT CELL:    8
     ATOM                 X/A                 Y/B             Z(ANGSTROM)
 *******************************************************************************
      1 T  15 P    -5.281081289358E-03 -4.205762927813E-01  3.685242083934E+00
      2 T  15 P     4.948094443236E-01 -9.301058233666E-02  3.653847954600E+00
      3 T  15 P    -5.000000000000E-01  7.863000000000E-02  1.550000000000E+00
      4 T  15 P    -2.935978169610E-03  4.076809098531E-01  1.589449115622E+00
      5 T  15 P     2.500000000000E-01 -4.213700000000E-01 -1.550000000000E+00
      6 T  15 P    -2.469706232073E-01 -9.229021799378E-02 -1.588619512916E+00
      7 T  15 P    -2.447296519152E-01  7.939317902878E-02 -3.684455990698E+00
      8 T  15 P     2.552590995485E-01  4.069755508995E-01 -3.653876270881E+00

 T = ATOM BELONGING TO THE ASYMMETRIC UNIT

 TOTAL ENERGY(DFT)(AU)(  3) -2.7301119912080E+03     DE (AU)   -2.841E-07

 UPDATED TRUST RADIUS     0.400E+01

 SYMMETRY ALLOWED FORCES  (COORDINATE, FORCE)

    1  1.3747473E-05    2  1.5244750E-06    3 -3.2602551E-05    4 -1.3407507E-05
    5 -2.0837821E-05    6  5.1346347E-05    7 -1.0204758E-05    8 -5.7907257E-06
    9 -6.2008612E-05   10 -1.1604558E-05   11 -7.1871513E-05   12  1.1877335E-05
   13  3.0416344E-06   14  3.7606569E-05   15 -5.2058873E-06   16  1.8034714E-06
   17 -1.8178402E-05   18 -7.6642053E-06   19 -8.4967083E-05   20  2.8068871E-05
   21  1.3176384E-05

 GRADIENT NORM     0.000155  GRADIENT THRESHOLD     0.500000

 EIGENVALUES OF THE ESTIMATED HESSIAN
  0.1743E-01  0.2710E-01  0.2788E-01  0.2827E-01  0.3089E-01  0.5368E-01
  0.6278E-01  0.7480E-01  0.1253      0.1502      0.1677      0.1729    
  0.1885      0.1954      0.2179      0.2883      0.3048      0.3110    
  0.3231      0.4038      0.4474    

 PREDICTED ENERGY CHANGE    -0.121E-06

 MAX GRADIENT      0.000085  THRESHOLD              0.000450 CONVERGED YES
 RMS GRADIENT      0.000034  THRESHOLD              0.000300 CONVERGED YES
 MAX DISPLAC.      0.001725  THRESHOLD              0.001800 CONVERGED YES
 RMS DISPLAC.      0.000597  THRESHOLD              0.001200 CONVERGED YES

 CONVERGENCE TESTS SATISFIED AFTER   8 ENERGY AND GRADIENT CALCULATIONS
 +++++++++++++++++++++++++++++++++++++++++++++++++++++++++++++++++++++++++++++++
 FINALRUN OPTION: RE-STARTING OPTIMIZATION
 +++++++++++++++++++++++++++++++++++++++++++++++++++++++++++++++++++++++++++++++
 TTTTTTTTTTTTTTTTTTTTTTTTTTTTTT OPTI        TELAPSE    39876.48 TCPU    39876.45
 *******************************************************************************
 COORDINATE AND CELL OPTIMIZATION - POINT    9
 *******************************************************************************
 LATTICE PARAMETERS (ANGSTROMS AND DEGREES) - BOHR = 0.5291772083 ANGSTROM
 PRIMITIVE CELL
         A              B              C           ALPHA      BETA       GAMMA 
     3.28982310     4.45082021   500.00000000    90.000000  90.000000  90.000245
 *******************************************************************************
 ATOMS IN THE ASYMMETRIC UNIT    8 - ATOMS IN THE UNIT CELL:    8
     ATOM                 X/A                 Y/B             Z(ANGSTROM)
 *******************************************************************************
      1 T  15 P    -5.277694583010E-03 -4.206093673341E-01  3.684382207363E+00
      2 T  15 P     4.947786878011E-01 -9.303735583177E-02  3.653955156023E+00
      3 T  15 P    -5.000000000000E-01  7.863000000000E-02  1.550000000000E+00
      4 T  15 P    -2.972373957125E-03  4.076848171698E-01  1.588536212599E+00
      5 T  15 P     2.500000000000E-01 -4.213700000000E-01 -1.550000000000E+00
      6 T  15 P    -2.469880172883E-01 -9.232751979031E-02 -1.588180856404E+00
      7 T  15 P    -2.447193806042E-01  7.941052799927E-02 -3.684052060376E+00
      8 T  15 P     2.552492630427E-01  4.069862929281E-01 -3.653909810545E+00

 T = ATOM BELONGING TO THE ASYMMETRIC UNIT

 REFERENCE GEOMETRY WILL BE CHANGED

 TOTAL ENERGY(DFT)(AU)( 12) -2.7301119291903E+03     DE (AU)    6.202E-05

 SYMMETRY ALLOWED FORCES  (COORDINATE, FORCE)

    1  1.3809595E-06    2  8.6133897E-05    3  4.5939488E-05    4 -1.1236209E-05
    5 -8.3315067E-05    6 -2.8460369E-05    7  2.4565716E-05    8 -1.1033368E-04
    9  4.5704233E-05   10 -5.2623185E-05   11 -8.5510428E-05   12 -6.7477801E-05
   13  1.6386169E-05   14  8.1251981E-05   15 -4.9057860E-05   16 -5.4114901E-06
   17 -9.7907733E-05   18  3.0687509E-05   19  2.7860656E-04   20 -1.0574796E-04
   21 -2.2657393E-05

 GRADIENT NORM     0.000395  GRADIENT THRESHOLD     0.500000

 HESSIAN UPDATE SKIPPED

 EIGENVALUES OF THE ESTIMATED HESSIAN
  0.1743E-01  0.2710E-01  0.2788E-01  0.2827E-01  0.3089E-01  0.5368E-01
  0.6278E-01  0.7480E-01  0.1253      0.1502      0.1677      0.1729    
  0.1885      0.1954      0.2179      0.2883      0.3048      0.3110    
  0.3231      0.4038      0.4474    

 PREDICTED ENERGY CHANGE    -0.106E-05

 MAX GRADIENT      0.000279  THRESHOLD              0.000450 CONVERGED YES
 RMS GRADIENT      0.000086  THRESHOLD              0.000300 CONVERGED YES
 MAX DISPLAC.      0.002777  THRESHOLD              0.001800 CONVERGED NO
 RMS DISPLAC.      0.001356  THRESHOLD              0.001200 CONVERGED NO
 TTTTTTTTTTTTTTTTTTTTTTTTTTTTTT OPTI        TELAPSE    45273.94 TCPU    45273.87
 *******************************************************************************
 COORDINATE AND CELL OPTIMIZATION - POINT   10
 *******************************************************************************
 LATTICE PARAMETERS (ANGSTROMS AND DEGREES) - BOHR = 0.5291772083 ANGSTROM
 PRIMITIVE CELL
         A              B              C           ALPHA      BETA       GAMMA 
     3.28985492     4.45356652   500.00000000    90.000000  90.000000  90.009299
 *******************************************************************************
 ATOMS IN THE ASYMMETRIC UNIT    8 - ATOMS IN THE UNIT CELL:    8
     ATOM                 X/A                 Y/B             Z(ANGSTROM)
 *******************************************************************************
      1 T  15 P    -5.330250994924E-03 -4.205996731286E-01  3.684768084681E+00
      2 T  15 P     4.947556553517E-01 -9.325081013341E-02  3.653507689604E+00
      3 T  15 P    -5.000000000000E-01  7.863000000000E-02  1.550000000000E+00
      4 T  15 P    -2.907321066800E-03  4.074457535910E-01  1.589403359675E+00
      5 T  15 P     2.500000000000E-01 -4.213700000000E-01 -1.550000000000E+00
      6 T  15 P    -2.470091262071E-01 -9.251811025620E-02 -1.589131519761E+00
      7 T  15 P    -2.446875786442E-01  7.938414559023E-02 -3.684530384107E+00
      8 T  15 P     2.553174209880E-01  4.067238604872E-01 -3.653530526171E+00

 T = ATOM BELONGING TO THE ASYMMETRIC UNIT

 TOTAL ENERGY(DFT)(AU)(  3) -2.7301119298310E+03     DE (AU)   -6.407E-07

 UPDATED TRUST RADIUS     0.400E+01

 SYMMETRY ALLOWED FORCES  (COORDINATE, FORCE)

    1 -6.3794862E-06    2  2.1450842E-05    3  1.3970209E-05    4  2.5564320E-05
    5 -3.0706388E-05    6  5.6500802E-06    7  3.4808975E-06    8 -2.0978471E-05
    9 -2.9386934E-06   10  2.3976300E-05   11 -8.4320546E-05   12 -6.6568558E-06
   13 -1.3365221E-05   14  1.9088694E-05   15 -1.8256783E-05   16 -1.1843565E-06
   17  1.5388449E-06   18  4.6959225E-06   19 -4.4409777E-05   20 -4.5715152E-05
   21  1.2638926E-04

 GRADIENT NORM     0.000177  GRADIENT THRESHOLD     0.500000

 EIGENVALUES OF THE ESTIMATED HESSIAN
  0.1731E-01  0.2615E-01  0.2814E-01  0.2845E-01  0.3038E-01  0.5240E-01
  0.5791E-01  0.7373E-01  0.1255      0.1502      0.1675      0.1716    
  0.1885      0.1968      0.2296      0.2889      0.3047      0.3111    
  0.3231      0.4123      0.4519    

 PREDICTED ENERGY CHANGE    -0.116E-06

 MAX GRADIENT      0.000126  THRESHOLD              0.000450 CONVERGED YES
 RMS GRADIENT      0.000039  THRESHOLD              0.000300 CONVERGED YES
 MAX DISPLAC.      0.000994  THRESHOLD              0.001800 CONVERGED YES
 RMS DISPLAC.      0.000433  THRESHOLD              0.001200 CONVERGED YES

 CONVERGENCE TESTS SATISFIED AFTER  10 ENERGY AND GRADIENT CALCULATIONS
 +++++++++++++++++++++++++++++++++++++++++++++++++++++++++++++++++++++++++++++++
 FINALRUN OPTION: RE-STARTING OPTIMIZATION
 +++++++++++++++++++++++++++++++++++++++++++++++++++++++++++++++++++++++++++++++
 TTTTTTTTTTTTTTTTTTTTTTTTTTTTTT OPTI        TELAPSE    48597.71 TCPU    48597.63
 *******************************************************************************
 COORDINATE AND CELL OPTIMIZATION - POINT   11
 *******************************************************************************
 LATTICE PARAMETERS (ANGSTROMS AND DEGREES) - BOHR = 0.5291772083 ANGSTROM
 PRIMITIVE CELL
         A              B              C           ALPHA      BETA       GAMMA 
     3.28969706     4.45404967   500.00000000    90.000000  90.000000  89.996445
 *******************************************************************************
 ATOMS IN THE ASYMMETRIC UNIT    8 - ATOMS IN THE UNIT CELL:    8
     ATOM                 X/A                 Y/B             Z(ANGSTROM)
 *******************************************************************************
      1 T  15 P    -5.283140519572E-03 -4.206203698047E-01  3.684947170732E+00
      2 T  15 P     4.947502748774E-01 -9.332018159062E-02  3.653454511526E+00
      3 T  15 P    -5.000000000000E-01  7.863000000000E-02  1.550000000000E+00
      4 T  15 P    -2.958432885123E-03  4.073976906297E-01  1.589659582454E+00
      5 T  15 P     2.500000000000E-01 -4.213700000000E-01 -1.550000000000E+00
      6 T  15 P    -2.470540313096E-01 -9.259996889443E-02 -1.589401286327E+00
      7 T  15 P    -2.447124186823E-01  7.939501460280E-02 -3.684726117579E+00
      8 T  15 P     2.552259326033E-01  4.067023600606E-01 -3.653437998563E+00

 T = ATOM BELONGING TO THE ASYMMETRIC UNIT

 REFERENCE GEOMETRY WILL BE CHANGED

 TOTAL ENERGY(DFT)(AU)(  3) -2.7301119323521E+03     DE (AU)   -2.521E-06

 SYMMETRY ALLOWED FORCES  (COORDINATE, FORCE)

    1  8.2285803E-06    2 -5.5727772E-07    3  1.4413636E-05    4 -8.4060766E-06
    5  7.9007806E-06    6 -1.6650538E-06    7 -1.0670334E-05    8  4.1109085E-07
    9 -2.8279994E-06   10 -1.0968955E-05   11  4.5762896E-06   12 -1.6370497E-05
   13  4.6882748E-06   14 -1.9586240E-06   15 -1.3417086E-05   16 -3.1318401E-06
   17 -8.3518204E-06   18  4.3553144E-06   19  4.6935195E-05   20 -2.3479005E-05
   21 -7.0378656E-05

 GRADIENT NORM     0.000095  GRADIENT THRESHOLD     0.500000

 HESSIAN UPDATE SKIPPED

 EIGENVALUES OF THE ESTIMATED HESSIAN
  0.1731E-01  0.2615E-01  0.2814E-01  0.2845E-01  0.3038E-01  0.5240E-01
  0.5791E-01  0.7373E-01  0.1255      0.1502      0.1675      0.1716    
  0.1885      0.1968      0.2296      0.2889      0.3047      0.3111    
  0.3231      0.4123      0.4519    

 PREDICTED ENERGY CHANGE    -0.359E-07

 MAX GRADIENT      0.000070  THRESHOLD              0.000450 CONVERGED YES
 RMS GRADIENT      0.000021  THRESHOLD              0.000300 CONVERGED YES
 MAX DISPLAC.      0.000500  THRESHOLD              0.001800 CONVERGED YES
 RMS DISPLAC.      0.000251  THRESHOLD              0.001200 CONVERGED YES

 CONVERGENCE TESTS SATISFIED AFTER  11 ENERGY AND GRADIENT CALCULATIONS

 ******************************************************************
 * OPT END - CONVERGED * E(AU):  -2.730111932352E+03  POINTS   11 *
 ******************************************************************

   BAND GAP:                      1.5764  eV 

 EIGENVECTORS IN FORTRAN UNIT  8

 NEIGHBORS OF THE NON-EQUIVALENT ATOMS

 N = NUMBER OF NEIGHBORS AT DISTANCE R
    ATOM  N     R/ANG      R/AU   NEIGHBORS (ATOM LABELS AND CELL INDICES)
   1 P    1     2.1980     4.1536    2 P   -1 0 0
   1 P    1     2.1983     4.1541    2 P    0 0 0
   1 P    1     2.2309     4.2159    4 P    0-1 0
   1 P    2     3.2897     6.2166    1 P   -1 0 0    1 P    1 0 0
   1 P    1     3.4181     6.4594    2 P    0-1 0
   1 P    1     3.4182     6.4595    2 P   -1-1 0

   2 P    1     2.1980     4.1536    1 P    1 0 0
   2 P    1     2.1983     4.1541    1 P    0 0 0
   2 P    1     2.2386     4.2304    3 P    0 0 0
   2 P    2     3.2897     6.2166    2 P   -1 0 0    2 P    1 0 0
   2 P    1     3.4181     6.4594    1 P    0 1 0
   2 P    1     3.4182     6.4595    1 P    1 1 0

   3 P    1     2.1954     4.1487    4 P    1 0 0
   3 P    1     2.2098     4.1759    4 P    0 0 0
   3 P    1     2.2386     4.2304    2 P    0 0 0
   3 P    2     3.2897     6.2166    3 P   -1 0 0    3 P    1 0 0
   3 P    1     3.3361     6.3044    6 P    1 0 0
   3 P    1     3.4078     6.4398    4 P    1-1 0

   4 P    1     2.1954     4.1487    3 P   -1 0 0
   4 P    1     2.2098     4.1759    3 P    0 0 0
   4 P    1     2.2309     4.2159    1 P    0 1 0
   4 P    2     3.2897     6.2166    4 P   -1 0 0    4 P    1 0 0
   4 P    1     3.3364     6.3049    5 P    0 1 0
   4 P    1     3.4078     6.4398    3 P   -1 1 0

   5 P    1     2.1953     4.1485    6 P    0 0 0
   5 P    1     2.2099     4.1761    6 P    1 0 0
   5 P    1     2.2386     4.2303    8 P    0-1 0
   5 P    2     3.2897     6.2166    5 P   -1 0 0    5 P    1 0 0
   5 P    1     3.3364     6.3049    4 P    0-1 0
   5 P    1     3.4080     6.4401    6 P    0-1 0

   6 P    1     2.1953     4.1485    5 P    0 0 0
   6 P    1     2.2099     4.1761    5 P   -1 0 0
   6 P    1     2.2310     4.2160    7 P    0 0 0
   6 P    2     3.2897     6.2166    6 P   -1 0 0    6 P    1 0 0
   6 P    1     3.3361     6.3044    3 P   -1 0 0
   6 P    1     3.4080     6.4401    5 P    0 1 0

   7 P    1     2.1981     4.1537    8 P    0 0 0
   7 P    1     2.1982     4.1540    8 P   -1 0 0
   7 P    1     2.2310     4.2160    6 P    0 0 0
   7 P    2     3.2897     6.2166    7 P   -1 0 0    7 P    1 0 0
   7 P    1     3.4180     6.4590    8 P    0-1 0
   7 P    1     3.4183     6.4597    8 P   -1-1 0

   8 P    1     2.1981     4.1537    7 P    0 0 0
   8 P    1     2.1982     4.1540    7 P    1 0 0
   8 P    1     2.2386     4.2303    5 P    0 1 0
   8 P    2     3.2897     6.2166    8 P   -1 0 0    8 P    1 0 0
   8 P    1     3.4180     6.4590    7 P    0 1 0
   8 P    1     3.4183     6.4597    7 P    1 1 0


 FINAL OPTIMIZED GEOMETRY - DIMENSIONALITY OF THE SYSTEM      2
 (NON PERIODIC DIRECTION: LATTICE PARAMETER FORMALLY SET TO 500)
 *******************************************************************************
 LATTICE PARAMETERS (ANGSTROMS AND DEGREES) - BOHR = 0.5291772083 ANGSTROM
 PRIMITIVE CELL
         A              B              C           ALPHA      BETA       GAMMA 
     3.28969706     4.45404967   500.00000000    90.000000  90.000000  89.996445
 *******************************************************************************
 ATOMS IN THE ASYMMETRIC UNIT    8 - ATOMS IN THE UNIT CELL:    8
     ATOM                 X/A                 Y/B             Z(ANGSTROM)
 *******************************************************************************
      1 T  15 P    -5.283140519572E-03 -4.206203698047E-01  3.684947170732E+00
      2 T  15 P     4.947502748774E-01 -9.332018159062E-02  3.653454511526E+00
      3 T  15 P    -5.000000000000E-01  7.863000000000E-02  1.550000000000E+00
      4 T  15 P    -2.958432885123E-03  4.073976906297E-01  1.589659582454E+00
      5 T  15 P     2.500000000000E-01 -4.213700000000E-01 -1.550000000000E+00
      6 T  15 P    -2.470540313096E-01 -9.259996889443E-02 -1.589401286327E+00
      7 T  15 P    -2.447124186823E-01  7.939501460280E-02 -3.684726117579E+00
      8 T  15 P     2.552259326033E-01  4.067023600606E-01 -3.653437998563E+00

 T = ATOM BELONGING TO THE ASYMMETRIC UNIT
 INFORMATION **** fort.34 **** GEOMETRY OUTPUT FILE

 DIRECT LATTICE VECTORS CARTESIAN COMPONENTS (ANGSTROM)
          X                    Y                    Z
   0.328969705784E+01   0.155451254437E-03   0.000000000000E+00
   0.659202144053E-04   0.445404967077E+01   0.000000000000E+00
   0.000000000000E+00   0.000000000000E+00   0.500000000000E+03


 CARTESIAN COORDINATES - PRIMITIVE CELL
 *******************************************************************************
 *      ATOM          X(ANGSTROM)         Y(ANGSTROM)         Z(ANGSTROM)
 *******************************************************************************
    1    15 P    -1.740765920836E-02 -1.873464840921E+00  3.684947170732E+00
    2    15 P     1.627572371944E+00 -4.155758145395E-01  3.653454511526E+00
    3    15 P     1.644853712227E+00  3.502996512402E-01  1.550000000000E+00
    4    15 P    -9.705492214894E-03  1.814569089932E+00  1.589659582454E+00
    5    15 P     8.223964876595E-01 -1.876764046961E+00 -1.550000000000E+00
    6    15 P    -8.127390241367E-01 -4.124832658270E-01 -1.589401286327E+00
    7    15 P    -8.050244900200E-01  3.535912978003E-01 -3.684726117579E+00
    8    15 P     8.396428094765E-01  1.811512188122E+00 -3.653437998563E+00

 ****    1 SYMMOPS - TRANSLATORS IN FRACTIONAL UNITS
 **** MATRICES AND TRANSLATORS IN THE CRYSTALLOGRAPHIC REFERENCE FRAME
   V INV                    ROTATION MATRICES                   TRANSLATORS
   1   1  1.00  0.00  0.00  0.00  1.00  0.00  0.00  0.00  1.00  0.00  0.00  0.00
 TTTTTTTTTTTTTTTTTTTTTTTTTTTTTT END         TELAPSE    51915.18 TCPU    51915.05
 EEEEEEEEEE TERMINATION  DATE 02 12 2017 TIME 06:26:18.4
NODE    0 CPU TIME =     51915.048
NODE    1 CPU TIME =     51915.176
NODE    2 CPU TIME =     51915.086
NODE    3 CPU TIME =     51915.152
NODE    4 CPU TIME =     51915.084
NODE    5 CPU TIME =     51915.096
NODE    6 CPU TIME =     51915.081
NODE    7 CPU TIME =     51914.973
NODE    8 CPU TIME =     51915.131
NODE    9 CPU TIME =     51915.130
NODE   10 CPU TIME =     51915.033
NODE   11 CPU TIME =     51915.234
NODE   12 CPU TIME =     51915.090
NODE   13 CPU TIME =     51915.021
    TOTAL CPU TIME =    726811.332
